<?xml version="1.0"?>
<VTKFile type="UnstructuredGrid"  version="0.1"  >
<UnstructuredGrid>
<Piece  NumberOfPoints="637" NumberOfCells="2592">
<Points>
<DataArray  type="Float64"  NumberOfComponents="3"  format="ascii">0.5 0 0  0.5833333333333334 0 0  0.5833333333333334 0.08333333333333333 0  0.5833333333333334 0.08333333333333333 0.08333333333333333  0.5833333333333334 0 0.08333333333333333  0.5 0 0.08333333333333333  0.5 0.08333333333333333 0  0.5 0.08333333333333333 0.08333333333333333  0.6666666666666666 0 0  0.6666666666666666 0.08333333333333333 0  0.6666666666666666 0.08333333333333333 0.08333333333333333  0.6666666666666666 0 0.08333333333333333  0.75 0 0  0.75 0.08333333333333333 0  0.75 0.08333333333333333 0.08333333333333333  0.75 0 0.08333333333333333  0.8333333333333334 0 0  0.8333333333333334 0.08333333333333333 0  0.8333333333333334 0.08333333333333333 0.08333333333333333  0.8333333333333334 0 0.08333333333333333  0.9166666666666666 0 0  0.9166666666666666 0.08333333333333333 0  0.9166666666666666 0.08333333333333333 0.08333333333333333  0.9166666666666666 0 0.08333333333333333  1 0 0  1 0.08333333333333333 0  1 0.08333333333333333 0.08333333333333333  1 0 0.08333333333333333  0.5833333333333334 0.1666666666666667 0  0.5833333333333334 0.1666666666666667 0.08333333333333333  0.5 0.1666666666666667 0  0.5 0.1666666666666667 0.08333333333333333  0.6666666666666666 0.1666666666666667 0  0.6666666666666666 0.1666666666666667 0.08333333333333333  0.75 0.1666666666666667 0  0.75 0.1666666666666667 0.08333333333333333  0.8333333333333334 0.1666666666666667 0  0.8333333333333334 0.1666666666666667 0.08333333333333333  0.9166666666666666 0.1666666666666667 0  0.9166666666666666 0.1666666666666667 0.08333333333333333  1 0.1666666666666667 0  1 0.1666666666666667 0.08333333333333333  0.5833333333333334 0.25 0  0.5833333333333334 0.25 0.08333333333333333  0.5 0.25 0  0.5 0.25 0.08333333333333333  0.6666666666666666 0.25 0  0.6666666666666666 0.25 0.08333333333333333  0.75 0.25 0  0.75 0.25 0.08333333333333333  0.8333333333333334 0.25 0  0.8333333333333334 0.25 0.08333333333333333  0.9166666666666666 0.25 0  0.9166666666666666 0.25 0.08333333333333333  1 0.25 0  1 0.25 0.08333333333333333  0.5833333333333334 0.3333333333333333 0  0.5833333333333334 0.3333333333333333 0.08333333333333333  0.5 0.3333333333333333 0  0.5 0.3333333333333333 0.08333333333333333  0.6666666666666666 0.3333333333333333 0  0.6666666666666666 0.3333333333333333 0.08333333333333333  0.75 0.3333333333333333 0  0.75 0.3333333333333333 0.08333333333333333  0.8333333333333334 0.3333333333333333 0  0.8333333333333334 0.3333333333333333 0.08333333333333333  0.9166666666666666 0.3333333333333333 0  0.9166666666666666 0.3333333333333333 0.08333333333333333  1 0.3333333333333333 0  1 0.3333333333333333 0.08333333333333333  0.5833333333333334 0.4166666666666667 0  0.5833333333333334 0.4166666666666667 0.08333333333333333  0.5 0.4166666666666667 0  0.5 0.4166666666666667 0.08333333333333333  0.6666666666666666 0.4166666666666667 0  0.6666666666666666 0.4166666666666667 0.08333333333333333  0.75 0.4166666666666667 0  0.75 0.4166666666666667 0.08333333333333333  0.8333333333333334 0.4166666666666667 0  0.8333333333333334 0.4166666666666667 0.08333333333333333  0.9166666666666666 0.4166666666666667 0  0.9166666666666666 0.4166666666666667 0.08333333333333333  1 0.4166666666666667 0  1 0.4166666666666667 0.08333333333333333  0.5833333333333334 0.5 0  0.5833333333333334 0.5 0.08333333333333333  0.5 0.5 0  0.5 0.5 0.08333333333333333  0.6666666666666666 0.5 0  0.6666666666666666 0.5 0.08333333333333333  0.75 0.5 0  0.75 0.5 0.08333333333333333  0.8333333333333334 0.5 0  0.8333333333333334 0.5 0.08333333333333333  0.9166666666666666 0.5 0  0.9166666666666666 0.5 0.08333333333333333  1 0.5 0  1 0.5 0.08333333333333333  0.5833333333333334 0.5833333333333334 0  0.5833333333333334 0.5833333333333334 0.08333333333333333  0.5 0.5833333333333334 0  0.5 0.5833333333333334 0.08333333333333333  0.6666666666666666 0.5833333333333334 0  0.6666666666666666 0.5833333333333334 0.08333333333333333  0.75 0.5833333333333334 0  0.75 0.5833333333333334 0.08333333333333333  0.8333333333333334 0.5833333333333334 0  0.8333333333333334 0.5833333333333334 0.08333333333333333  0.9166666666666666 0.5833333333333334 0  0.9166666666666666 0.5833333333333334 0.08333333333333333  1 0.5833333333333334 0  1 0.5833333333333334 0.08333333333333333  0.5833333333333334 0.6666666666666666 0  0.5833333333333334 0.6666666666666666 0.08333333333333333  0.5 0.6666666666666666 0  0.5 0.6666666666666666 0.08333333333333333  0.6666666666666666 0.6666666666666666 0  0.6666666666666666 0.6666666666666666 0.08333333333333333  0.75 0.6666666666666666 0  0.75 0.6666666666666666 0.08333333333333333  0.8333333333333334 0.6666666666666666 0  0.8333333333333334 0.6666666666666666 0.08333333333333333  0.9166666666666666 0.6666666666666666 0  0.9166666666666666 0.6666666666666666 0.08333333333333333  1 0.6666666666666666 0  1 0.6666666666666666 0.08333333333333333  0.5833333333333334 0.75 0  0.5833333333333334 0.75 0.08333333333333333  0.5 0.75 0  0.5 0.75 0.08333333333333333  0.6666666666666666 0.75 0  0.6666666666666666 0.75 0.08333333333333333  0.75 0.75 0  0.75 0.75 0.08333333333333333  0.8333333333333334 0.75 0  0.8333333333333334 0.75 0.08333333333333333  0.9166666666666666 0.75 0  0.9166666666666666 0.75 0.08333333333333333  1 0.75 0  1 0.75 0.08333333333333333  0.5833333333333334 0.8333333333333334 0  0.5833333333333334 0.8333333333333334 0.08333333333333333  0.5 0.8333333333333334 0  0.5 0.8333333333333334 0.08333333333333333  0.6666666666666666 0.8333333333333334 0  0.6666666666666666 0.8333333333333334 0.08333333333333333  0.75 0.8333333333333334 0  0.75 0.8333333333333334 0.08333333333333333  0.8333333333333334 0.8333333333333334 0  0.8333333333333334 0.8333333333333334 0.08333333333333333  0.9166666666666666 0.8333333333333334 0  0.9166666666666666 0.8333333333333334 0.08333333333333333  1 0.8333333333333334 0  1 0.8333333333333334 0.08333333333333333  0.5833333333333334 0.9166666666666666 0  0.5833333333333334 0.9166666666666666 0.08333333333333333  0.5 0.9166666666666666 0  0.5 0.9166666666666666 0.08333333333333333  0.6666666666666666 0.9166666666666666 0  0.6666666666666666 0.9166666666666666 0.08333333333333333  0.75 0.9166666666666666 0  0.75 0.9166666666666666 0.08333333333333333  0.8333333333333334 0.9166666666666666 0  0.8333333333333334 0.9166666666666666 0.08333333333333333  0.9166666666666666 0.9166666666666666 0  0.9166666666666666 0.9166666666666666 0.08333333333333333  1 0.9166666666666666 0  1 0.9166666666666666 0.08333333333333333  0.5833333333333334 1 0  0.5833333333333334 1 0.08333333333333333  0.5 1 0  0.5 1 0.08333333333333333  0.6666666666666666 1 0  0.6666666666666666 1 0.08333333333333333  0.75 1 0  0.75 1 0.08333333333333333  0.8333333333333334 1 0  0.8333333333333334 1 0.08333333333333333  0.9166666666666666 1 0  0.9166666666666666 1 0.08333333333333333  1 1 0  1 1 0.08333333333333333  0.5833333333333334 0.08333333333333333 0.1666666666666667  0.5833333333333334 0 0.1666666666666667  0.5 0 0.1666666666666667  0.5 0.08333333333333333 0.1666666666666667  0.6666666666666666 0.08333333333333333 0.1666666666666667  0.6666666666666666 0 0.1666666666666667  0.75 0.08333333333333333 0.1666666666666667  0.75 0 0.1666666666666667  0.8333333333333334 0.08333333333333333 0.1666666666666667  0.8333333333333334 0 0.1666666666666667  0.9166666666666666 0.08333333333333333 0.1666666666666667  0.9166666666666666 0 0.1666666666666667  1 0.08333333333333333 0.1666666666666667  1 0 0.1666666666666667  0.5833333333333334 0.1666666666666667 0.1666666666666667  0.5 0.1666666666666667 0.1666666666666667  0.6666666666666666 0.1666666666666667 0.1666666666666667  0.75 0.1666666666666667 0.1666666666666667  0.8333333333333334 0.1666666666666667 0.1666666666666667  0.9166666666666666 0.1666666666666667 0.1666666666666667  1 0.1666666666666667 0.1666666666666667  0.5833333333333334 0.25 0.1666666666666667  0.5 0.25 0.1666666666666667  0.6666666666666666 0.25 0.1666666666666667  0.75 0.25 0.1666666666666667  0.8333333333333334 0.25 0.1666666666666667  0.9166666666666666 0.25 0.1666666666666667  1 0.25 0.1666666666666667  0.5833333333333334 0.3333333333333333 0.1666666666666667  0.5 0.3333333333333333 0.1666666666666667  0.6666666666666666 0.3333333333333333 0.1666666666666667  0.75 0.3333333333333333 0.1666666666666667  0.8333333333333334 0.3333333333333333 0.1666666666666667  0.9166666666666666 0.3333333333333333 0.1666666666666667  1 0.3333333333333333 0.1666666666666667  0.5833333333333334 0.4166666666666667 0.1666666666666667  0.5 0.4166666666666667 0.1666666666666667  0.6666666666666666 0.4166666666666667 0.1666666666666667  0.75 0.4166666666666667 0.1666666666666667  0.8333333333333334 0.4166666666666667 0.1666666666666667  0.9166666666666666 0.4166666666666667 0.1666666666666667  1 0.4166666666666667 0.1666666666666667  0.5833333333333334 0.5 0.1666666666666667  0.5 0.5 0.1666666666666667  0.6666666666666666 0.5 0.1666666666666667  0.75 0.5 0.1666666666666667  0.8333333333333334 0.5 0.1666666666666667  0.9166666666666666 0.5 0.1666666666666667  1 0.5 0.1666666666666667  0.5833333333333334 0.5833333333333334 0.1666666666666667  0.5 0.5833333333333334 0.1666666666666667  0.6666666666666666 0.5833333333333334 0.1666666666666667  0.75 0.5833333333333334 0.1666666666666667  0.8333333333333334 0.5833333333333334 0.1666666666666667  0.9166666666666666 0.5833333333333334 0.1666666666666667  1 0.5833333333333334 0.1666666666666667  0.5833333333333334 0.6666666666666666 0.1666666666666667  0.5 0.6666666666666666 0.1666666666666667  0.6666666666666666 0.6666666666666666 0.1666666666666667  0.75 0.6666666666666666 0.1666666666666667  0.8333333333333334 0.6666666666666666 0.1666666666666667  0.9166666666666666 0.6666666666666666 0.1666666666666667  1 0.6666666666666666 0.1666666666666667  0.58333333333333
[...]
<PointData  Vectors="u"> 
<DataArray  type="Float64"  Name="u"  NumberOfComponents="3" format="ascii">2.4689374399633263e-01 7.3141261864641913e-02 7.3141261864641913e-02  2.8536871861219248e-01 7.4484747725374834e-02 7.4484747725374834e-02  2.8391432014231754e-01 6.2688038826521394e-02 7.4586115740519821e-02  2.8253788629521803e-01 6.2630459260124921e-02 6.2630459260124935e-02  2.8391432014231754e-01 7.4586115740519807e-02 6.2688038826521436e-02  2.4471691260388981e-01 7.3308612262538847e-02 6.1611110116908258e-02  2.4471691260388989e-01 6.1611110116908223e-02 7.3308612262538861e-02  2.4263941486790680e-01 6.1528918519797776e-02 6.1528918519797783e-02  3.2484909519285965e-01 7.5294973798154363e-02 7.5294973798154419e-02  3.2384003697492314e-01 6.3258975781990426e-02 7.5348693646911602e-02  3.2289207904791756e-01 6.3222622578266940e-02 6.3222622578266982e-02  3.2384003697492314e-01 7.5348693646911533e-02 6.3258975781990495e-02  3.6518186732672164e-01 7.5833091343608855e-02 7.5833091343608952e-02  3.6440892184861434e-01 6.3595641156787452e-02 7.5851914354566896e-02  3.6368436798506504e-01 6.3577120649491323e-02 6.3577120649491392e-02  3.6440892184861440e-01 7.5851914354566827e-02 6.3595641156787439e-02  4.0619322331588048e-01 7.6292954327608548e-02 7.6292954327608617e-02  4.0550478660984207e-01 6.3897725574770498e-02 7.6286701411818786e-02  4.0485465506435409e-01 6.3893904935695842e-02 6.3893904935695953e-02  4.0550478660984213e-01 7.6286701411818744e-02 6.3897725574770525e-02  4.4767084007996755e-01 7.6816679298115767e-02 7.6816679298115906e-02  4.4698118585789642e-01 6.4316537918838471e-02 7.6795862032863330e-02  4.4631913935349488e-01 6.4323632420734828e-02 6.4323632420734939e-02  4.4698118585789631e-01 7.6795862032863260e-02 6.4316537918838582e-02  4.8934706259752331e-01 7.7457274628388625e-02 7.7457274628388875e-02  4.8864685070978664e-01 6.4958514423998553e-02 7.7436499968979708e-02  4.8795855640925023e-01 6.4957208896168558e-02 6.4957208896168586e-02  4.8864685070978686e-01 7.7436499968979666e-02 6.4958514423998637e-02  2.8196357928899568e-01 5.0621991642774374e-02 7.4905719764196688e-02  2.8068685494076051e-01 5.0433380677363450e-02 6.2840671867486778e-02  2.4211496365400023e-01 4.9716662742324787e-02 7.3802310588873266e-02  2.4015250297370411e-01 4.9444799564528949e-02 6.1855369007239890e-02  3.2235670077115763e-01 5.1036807008904769e-02 7.5533775163388037e-02  3.2149197874900376e-01 5.0919386869514083e-02 6.3343757010115881e-02  3.6323235890862399e-01 5.1235163684662313e-02 7.5933796110784726e-02  3.6257681216910503e-01 5.1176968586947390e-02 6.3630949805109763e-02  4.0450894681033767e-01 5.1415431886731658e-02 7.6289579723260711e-02  4.0391750867679654e-01 5.1406248175014997e-02 6.3896699546696675e-02  4.4607926201209913e-01 5.1737737313472955e-02 7.6737035902434109e-02  4.4547153034855308e-01 5.1767795259860222e-02 6.4284687943800642e-02  4.8778805489069160e-01 5.2389363132939577e-02 7.7318326576202551e-02  4.8715853814010684e-01 5.2419005167028257e-02 6.4870965884802206e-02  2.7999396817001410e-01 3.8259798165559807e-02 7.5332591982336064e-02  2.7882783345242096e-01 3.8021767513527760e-02 6.3181430658466889e-02  2.3967801020192928e-01 3.7498867315511934e-02 7.4427308613731966e-02  2.3783513940051962e-01 3.7165890385422069e-02 6.2352974584120431e-02  3.2077394668066883e-01 3.8574999608413874e-02 7.5794962424283310e-02  3.2000559255280409e-01 3.8423067462666528e-02 6.3553017622431165e-02  3.6193460493710444e-01 3.8692998077489618e-02 7.6059931885962440e-02  3.6136195280272471e-01 3.8615696667784652e-02 6.3733589621073838e-02  4.0339767831706463e-01 3.8795386506476348e-02 7.6304452742254572e-02  4.0287999735578089e-01 3.8782135703131028e-02 6.3912773913018917e-02  4.4507273122154084e-01 3.9040250343546426e-02 7.6654081780225841e-02  4.4453707699644140e-01 3.9080318369904700e-02 6.4227498642564579e-02  4.8683918999070747e-01 3.9649081304604678e-02 7.7137041083127980e-02  4.8629017105784383e-01 3.9696312208654716e-02 6.4747795490443363e-02  2.7836794625703981e-01 2.5678807185128171e-02 7.5731221968907830e-02  2.7729812032828366e-01 2.5472852239444607e-02 6.3518197382187697e-02  2.3777678458559715e-01 2.5105921789294269e-02 7.4988529596285491e-02  2.3603160379106958e-01 2.4824709749011926e-02 6.2825839250672436e-02  3.1941193264706819e-01 2.5907759773228751e-02 7.6047451826743079e-02  3.1873111679441612e-01 2.5773727122323255e-02 6.3767321530439888e-02  3.6078464890865569e-01 2.5981318370555190e-02 7.6186725621786702e-02  3.6028987750134533e-01 2.5911943769211375e-02 6.3843340449792563e-02  4.0239367728810194e-01 2.6040589256664921e-02 7.6322390974664978e-02  4.0194735099270590e-01 2.6028244540524603e-02 6.3934102057420589e-02  4.4415413064844517e-01 2.6214984135461732e-02 7.6572440008107326e-02  4.4368915306337076e-01 2.6250954350614138e-02 6.4172901973214402e-02  4.8597637473440647e-01 2.6694423473372992e-02 7.6956526388231458e-02  4.8550507294951506e-01 2.6739703337745391e-02 6.4629096095512317e-02  2.7730941193738973e-01 1.2974921305953959e-02 7.6005733783343729e-02  2.7630367819281343e-01 1.2857214970344651e-02 6.3755635872252733e-02  2.3658672693015945e-01 1.2656948408478710e-02 7.5365302773871934e-02  2.3490336671419559e-01 1.2498371343409585e-02 6.3151020485669299e-02  3.1849880263673230e-01 1.3105068963431252e-02 7.6224992491251489e-02  3.1787815135480224e-01 1.3027680765488350e-02 6.3921679726400976e-02  3.5999655786556189e-01 1.3148864431467823e-02 7.6277592390115501e-02  3.5955662313185105e-01 1.3108549247183991e-02 6.3924191941126279e-02  4.0169478451003832e-01 1.3183845541034325e-02 7.6335885967848238e-02  4.0129957871791455e-01 1.3176747650454328e-02 6.3951202569868568e-02  4.4350953278106481e-01 1.3283041152754509e-02 7.6514001267735096e-02  4.4309539345434590e-01 1.3304291544568981e-02 6.4134816681110013e-02  4.8537184001761102e-01 1.3553501049744749e-02 7.6827357900567161e-02  4.8495570118615083e-01 1.3581671330149037e-02 6.4545547731900563e-02  2.7693199241827587e-01 2.2068439397121523e-04 7.6104031967678218e-02  2.7594910106274867e-01 2.1844091749640874e-04 6.3841254859784910e-02  2.3617220461393418e-01 2.0283973859771588e-04 7.5498703763181824e-02  2.3451046184376759e-01 1.9920754817926204e-04 6.3266986545243001e-02  3.1816681670842850e-01 2.3802385676932502e-04 7.6289148485429600e-02  3.1756786000072990e-01 2.3684547425176599e-04 6.3977878170389815e-02  3.5970529939667367e-01 2.5536794288864118e-04 7.6310686591945245e-02  3.5928533693041748e-01 2.5504718460694063e-04 6.3953939824436992e-02  4.0143312483908167e-01 2.7297446048777697e-04 7.6340880499363550e-02  4.0105672628577632e-01 2.7334952124966440e-04 6.3957750160551580e-02  4.4326631920680576e-01 2.9086432902936262e-04 7.6492674615927264e-02  4.4287099763118626e-01 2.9174957539838221e-04 6.4121173129144268e-02  4.8514383586528020e-01 3.0650759812118710e-04 7.6780258024113771e-02  4.8474789983275829e-01 3.0944339898943574e-04 6.4515570982787721e-02  2.7726951455132581e-01 -1.2533484336253238e-02 7.6009915395409883e-02  2.7626559079426999e-01 -1.2420358670773653e-02 6.3758596084576846e-02  2.3654755291385285e-01 -1.2250537108664687e-02 7.5371598657456754e-02  2.3486660701356099e-01 -1.2099385939610061e-02 6.3155536132386600e-02  3.1845888907276232e-01 -1.2629182014455566e-02 7.6227514962676921e-02  3.1783951531535887e-01 -1.2554215303767180e-02 6.3923493465726705e-02  3.5995676480237088e-01 -1.2638318261237279e-02 7.6278860817458105e-02  3.5951783143517907e-01 -1.2598715302425980e-02 6.3925197753592136e-02  4.0165485031245984e-01 -1.2638018995467766e-02 7.6336144204387502e-02  4.0126070521375046e-01 -1.2630296453143548e-02 6.3951581590867543e-02  4.4346940016136438e-01 -1.2701262343603300e-02 7.6513223951041154e-02  4.4305661642021060e-01 -1.2721004949369168e-02 6.4134551260524822e-02  4.8533405154393927e-01 -1.2939867959052847e-02 7.6825566897901071e-02  4.8491906210379249e-01 -1.2962855211381911e-02 6.4545285598971269e-02  2.7828789050218850e-01 -2.5237475799408052e-02 7.5739165667879804e-02  2.7722156705806594e-01 -2.5036318744331449e-02 6.3523726135283176e-02  2.3769744237838578e-01 -2.4697994546113339e-02 7.5000856334160870e-02  2.3595721150631407e-01 -2.4424679605385587e-02 6.2834515259845347e-02  3.1933227289274618e-01 -2.5432436343088078e-02 7.6052130119922262e-02  3.1865384641315397e-01 -2.5300953213594574e-02 6.3770645340167714e-02  3.6070545970672624e-01 -2.5471321482572952e-02 7.6189026426304082e-02  3.6021252491506078e-01 -2.5402809373647278e-02 6.3845153354980352e-02  4.0231437346077764e-01 -2.5495129228875799e-02 7.6322845105596379e-02  4.0186997696564059e-01 -2.5482450376151558e-02 6.3934764853998280e-02  4.4407444298672655e-01 -2.5633115179870113e-02 7.6571028079262290e-02  4.4361193953034561e-01 -2.5668247968816473e-02 6.4172376587248309e-02  4.8590094317786681e-01 -2.6078846776282635e-02 7.6953317392739445e-02  4.8543162653813743e-01 -2.6120987336951004e-02 6.4628553245963921e-02  2.7987370109460324e-01 -3.7819451107564322e-02 7.5343165729364794e-02  2.7871247050414505e-01 -3.7586193921366987e-02 6.3188733541032369e-02  2.3955707761899039e-01 -3.7090457025047388e-02 7.4444545236797818e-02  2.3772168744744585e-01 -3.6765798974382209e-02 6.2364863653401319e-02  3.2065508267243126e-01 -3.8100787075109090e-02 7.5800939947216539e-02  3.1988993912896069e-01 -3.7951312902028182e-02 6.3557308907458546e-02  3.6181680455016085e-01 -3.8183820203372340e-02 7.6062738268296209e-02  3.6124656031183638e-01 -3.8107394903031229e-02 6.3735872559794918e-02  4.0328003694492098e-01 -3.8250469800486429e-02 7.6304927897586347e-02  4.0276482144354103e-01 -3.8237097204201174e-02 6.3913548784330448e-02  4.4495460466991682e-01 -3.8458449754195774e-02 7.6652296650304652e-02  4.4442209472369498e-01 -3.8498382639557703e-02 6.4226730533755230e-02  4.8672612842397822e-01 -3.9030067622791716e-02 7.7133107256103811e-02  4.8617942201170811e-01 -3.9077422592371167e-02 6.4746869397174917e-02  2.8180404696434830e-01 -5.0183928273225986e-02 7.4916617121661408e-02  2.8053324702890919e-01 -4.9998743764877923e-02 6.2848750900665676e-02  2.4195219417102584e-01 -4.9310620185714971e-02 7.3821292134515562e-02  2.3999941074032016e-01 -4.9045783842486514e-02 6.1868865407390394e-02  3.2219976770893194e-01 -5.0564273722185811e-02 7.5539571508293157e-02  3.2133880277251481e-01 -5.0448306039045092e-02 6.3348455530524914e-02  3.6307703359638593e-01 -5.0726987628609152e-02 7.5936264827769148e-02  3.6242423071327179e-01 -5.0669086350184619e-02 6.3633388197641277e-02  4.0435422146849276e-01 -5.0871006448079445e-02 7.6289722095200838e-02  4.0376538054276823e-01 -5.0861510643139596e-02 6.3897395576771196e-02  4.4592438456926986e-01 -5.1156280596629487e-02 7.6735153111444479e-02  4.4531972705832673e-01 -5.1186446215299122e-02 6.4283726898341526e-02  4.8763683915306510e-01 -5.1765663159316987e-02 7.7314607056749196e-02  4.8700960823560685e-01 -5.1799213240816405e-02 6.4869445021375330e-02  2.8371743290716006e-01 -6.2252363615052861e-02 7.4594520061787975e-02  2.8234804140967884e-01 -6.2193973010538424e-02 6.2638673204076803e-02  2.4451480590553257e-01 -6.1208775937163770e-02 7.3324328695822547e-02  2.4244932478418546e-01 -6.1127790847771209e-02 6.1542690126886200e-02  3.2364631959874623e-01 -6.2788084508539885e-02 7.5352805514328033e-02  3.2270279139388364e-01 -6.2750261796093498e-02 6.3227412973041838e-02  3.6421708983354528e-01 -6.3088653550519139e-02 7.5853279298558604e-02  3.6349565542955076e-01 -6.3068474421432055e-02 6.3579528032733437e-02  4.0531414309025804e-01 -6.3353785012910807e-02 7.6286029300430838e-02  4.0466636155464220e-01 -6.3348531209858505e-02 6.3894334380814835e-02  4.4679180168569671e-01 -6.3734486236542362e-02 7.6793884450559999e-02  4.4613126103657763e-01 -6.3741714303385696e-02 6.4322576132647233e-02  4.8845767747018703e-01 -6.4331588910290144e-02 7.7434912273041973e-02  4.8777086834564881e-01 -6.4335065484018211e-02 6.4955425031528499e-02  2.8512768821739648e-01 -7.4041691617094160e-02 7.4486794127879591e-02  2.8369136934019812e-01 -7.4140014257445069e-02 6.2695206392509958e-02  2.4664510687162611e-01 -7.2729689363107156e-02 7.3148069957412964e-02  2.4449753472590269e-01 -7.2894215824792566e-02 6.1622784551798516e-02  3.2461209356509224e-01 -7.4818314642201816e-02 7.5294759871649075e-02  3.2361543450661656e-01 -7.4869251924037733e-02 6.3263312988952533e-02  3.6494686661599357e-01 -7.5321840285029307e-02 7.5831751296853003e-02  3.6418377417618741e-01 -7.5338262837010728e-02 6.3597992277071164e-02  4.0596125408593736e-01 -7.5746718883189595e-02 7.6290539163112570e-02  4.0528032047204410e-01 -7.5738597035006530e-02 6.3898216915014794e-02  4.4744990463044715e-01 -7.6234185150361178e-02 7.6812281533849558e-02  4.4675858909355493e-01 -7.6213005514374849e-02 6.4315355909307981e-02  4.8913399853705430e-01 -7.6841144260467564e-02 7.7461688482406976e-02  4.8841837466091742e-01 -7.6815097978211469e-02 6.4955351945221840e-02  2.8068685494076051e-01 6.2840671867486764e-02 5.0433380677363464e-02  2.8196357928899568e-01 7.4905719764196688e-02 5.0621991642774415e-02  2.4211496365400023e-01 7.3802310588873252e-02 4.9716662742324801e-02  2.4015250297370411e-01 6.1855369007239827e-02 4.9444799564528977e-02  3.2149197874900387e-01 6.3343757010115812e-02 5.0919386869514124e-02  3.2235670077115769e-01 7.5533775163387953e-02 5.1036807008904811e-02  3.6257681216910498e-01 6.3630949805109693e-02 5.1176968586947466e-02  3.6323235890862399e-01 7.5933796110784671e-02 5.1235163684662334e-02  4.0391750867679654e-01 6.3896699546696578e-02 5.1406248175015073e-02  4.0450894681033756e-01 7.6289579723260587e-02 5.1415431886731727e-02  4.4547153034855297e-01 6.4284687943800572e-02 5.1767795259860305e-02  4.4607926201209913e-01 7.6737035902434012e-02 5.1737737313473031e-02  4.8715853814010679e-01 6.4870965884802109e-02 5.2419005167028306e-02  4.8778805489069166e-01 7.7318326576202467e-02 5.2389363132939688e-02  2.7887814125475702e-01 5.0543285963426471e-02 5.0543285963426464e-02  2.3769994181987070e-01 4.9616827326247719e-02 4.9616827326247732e-02  3.2013585884302975e-01 5.0982251586225324e-02 5.0982251586225387e-02  3.6151274969937935e-01 5.1205198740276396e-02 5.1205198740276493e-02  4.0302437077957470e-01 5.1408329091515867e-02 5.1408329091515964e-02  4.4467133302979772e-01 5.1745008894862971e-02 5.1745008894863061e-02  4.8641159540032353e-01 5.2356167266418764e-02 5.2356167266418889e-02  2.7704565315976726e-01 3.8058292948113803e-02 5.0791754040178758e-02  2.3539929431121326e-01 3.7226852128718492e-02 4.9975417271240517e-02  3.1868086195882650e-01 3.8442399789968960e-02 5.1136803954562930e-02  3.6033181632038180e-01 3.8623657806399550e-02 5.1283160408760686e-02  4.0202349561146750e-01 3.8781708561862027e-02 5.1424106044182114e-02  4.4377833318701410e-01 3.9067757975724565e-02 5.1708350447030108e-02  4.8559249115402175e-01 3.9651563986368855e-02 5.2274311326297770e-02  2.7553733302049666e-01 2.5470836613667842e-02 5.1054307446906581e-02  2.3361002403093373e-01 2.4827710172492270e-02 5.0340640943041776e-02  3.1743170515865715e-01 2.5770008799247048e-02 5.1305763246161228e-02  3.5928735101947895e-01 2.5908787651381063e-02 5.1372042449015484e-02  4.0112087673660335e-01 2.6025876071147504e-02 5.1446103591745840e-02  4.4296465277303110e-01 2.6244286233922425e-02 5.1675335336401375e-02  4.8484885737701061e-01 2.6710392699132279e-02 5.2200984890290965e-02  2.7455807769823132e-01 1.2847040918132642e-02 5.1244511244811206e-02  2.3249266345346831e-01 1.2487239403141920e-02 5.0599305257188559e-02  3.1659629736462613e-01 1.3019830132786427e-02 5.1430646852791459e-02  3.5857303684644509e-01 1.3103701516302826e-02 5.1439270691375036e-02  4.0049354384029878e-01 1.3174438248165913e-02 5.1464305892430139e-02  4.4239407144614268e-01 1.3301108263176127e-02 5.1653459986758340e-02  4.8432754709788645e-01 1.3566913436101535e-02 5.2151465051918998e-02  2.7420932519680680e-01 2.1712428473787679e-04 5.1313957096557096e-02  2.3210405609403528e-01 1.9757080600459786e-04 5.0692819825579168e-02  3.1629262339798542e-01 2.3584087747855918e-04 5.1476657890459972e-02  3.5830879315960856e-01 2.5427507535813752e-04 5.1464316440377730e-02  4.0025818874512825e-01 2.7268068696875632e-04 5.1471380666366473e-02  4.4217804868672383e-01 2.9109369714666269e-04 5.1645844828492771e-02  4.8412983103504242e-01 3.0914292228054543e-04 5.2134028835134641e-02  2.7452097942233644e-01 -1.2412806854265516e-02 5.1247281459016650e-02  2.3245674128676927e-01 -1.2091571780976695e-02 5.0603465088189505e-02  3.1655860939221331e-01 -1.2548333215862163e-02 5.1432373690248376e-02  3.5853507427963288e-01 -1.2595357954185978e-02 5.1440246482096212e-02  4.0045534022838891e-01 -1.2629263116107899e-02 5.1464705652348008e-02  4.4235574191659571e-01 -1.2719066637870658e-02 5.1653339451946778e-02  4.8429136743167828e-01 -1.2948727162058032e-02 5.2151312237125491e-02  2.7546292105435505e-01 -2.5036860144242012e-02 5.1059598478337472e-02  2.3353765296734114e-01 -2.4431074652675706e-02 5.0348788956383894e-02  3.1735637241459375e-01 -2.5299073374504363e-02 5.1309006875103862e-02  3.5921164307689901e-01 -2.5400989287323018e-02 5.1373847610398357e-02  4.0104482113616602e-01 -2.5481182598059069e-02 5.1446818033385792e-02  4.4288832834379632e-01 -2.5662624169276196e-02 5.1675058484849955e-02  4.8477631014102002e-01 -2.6092401901928557e-02 5.2200563149623687e-02  2.7693381793910182e-01 -3.7625149238353757e-02 5.0799042448930146e-02  2.3528967358971822e-01 -3.6830222041213764e-02 4.9987025317669735e-02  3.1856815501473290e-01 -3.7972291918352941e-02 5.1141179489326234e-02  3.6021881490641960e-01 -3.8116490709809249e-02 5.1285544693109739e-02  4.0191022203624066e-01 -3.8237542470294650e-02 5.1424993869885242e-02  4.4366469864581670e-01 -3.8486557770938248e-02 5.1707871432867106e-02  4.8548308676308416e-01 -3.9033563608503630e-02 5.2273379663392940e-02  2.7872957894376765e-01 -5.0111040887399372e-02 5.0551827811888481e-02  2.3755319744577807e-01 -4.9221601783525699e-02 4.9630848763309372e-02  3.1998653187548010e-01 -5.0512670991238767e-02 5.0987297721829201e-02  3.6136311648327574e-01 -5.0698309222439689e-02 5.1207898946014387e-02  4.0287455488908480e-01 -5.0864329942485083e-02 5.1409267366541729e-02  4.4452137441436790e-01 -5.1164111262558071e-02 5.1744343200376554e-02  4.8626452475723375e-01 -5.1737387122467324e-02 5.2354430699167925e-02  2.8050330639189569e-01 -6.2406363134261296e-02 5.0442731495248909e-02  2.3997150714249102e-01 -6.1458297349401239e-02 4.9460371919102790e-02  3.2130711736496387e-01 -6.2872597873958908e-02 5.0924876320122693e-02  3.6239129533685016e-01 -6.3123098176713230e-02 5.1179896396947679e-02  4.0373157648928354e-01 -6.3352084154653918e-02 5.1407292089722376e-02  4.4528581008459273e-01 -6.3703311374438520e-02 5.1767175131563661e-02  4.8697307516312777e-01 -6.4249824172537606e-02 5.2416241950238474e-02  2.8174845970642953e-01 -7.4461540814949309e-02 5.0629134221706437e-02  2.4190609691213472e-01 -7.3391138628628158e-02 4.9728774752246047e-02  3.2213797565192681e-01 -7.5055478669878356e-02 5.1041002675109366e-02  3.6301160674864058e-01 -7.5420918983535215e-02 5.1237541525002712e-02  4.0428728591031654e-01 -7.5742173106999738e-02 5.1416586537310974e-02  4.4585830232977630e-01 -7.6154645729726383e-02 5.1737715130743364e-02  4.8756511887795084e-01 -7.6699763323633527e-02 5.2382389518104762e-02  2.7882783345242096e-01 6.3181430658466875e-02 3.8021767513527781e-02  2.7999396817001421e-01 7.5332591982336064e-02 3.8259798165559793e-02  2.3967801020192928e-01 7.4427308613731952e-02 3.7498867315511920e-02  2.3783513940051962e-01 6.2352974584120410e-02 3.7165890385422083e-02  3.2000559255280414e-01 6.3553017622431082e-02 3.8423067462666570e-02  3.2077394668066889e-01 7.5794962424283241e-02 3.8574999608413894e-02  3.6136195280272471e-01 6.3733589621073755e-02 3.8615696667784707e-02  3.6193460493710444e-01 7.6059931885962384e-02 3.8692998077489694e-02  4.0287999735578089e-01 6.3912773913018833e-02 3.8782135703131111e-02  4.0339767831706458e-01 7.6304452