<?xml version="1.0"?>
<VTKFile type="UnstructuredGrid"  version="0.1"  >
<UnstructuredGrid>
<Piece  NumberOfPoints="637" NumberOfCells="2592">
<Points>
<DataArray  type="Float64"  NumberOfComponents="3"  format="ascii">0 0 0.5  0.08333333333333333 0 0.5  0.08333333333333333 0.08333333333333333 0.5  0.08333333333333333 0.08333333333333333 0.5833333333333334  0.08333333333333333 0 0.5833333333333334  0 0 0.5833333333333334  0 0.08333333333333333 0.5  0 0.08333333333333333 0.5833333333333334  0.1666666666666667 0 0.5  0.1666666666666667 0.08333333333333333 0.5  0.1666666666666667 0.08333333333333333 0.5833333333333334  0.1666666666666667 0 0.5833333333333334  0.25 0 0.5  0.25 0.08333333333333333 0.5  0.25 0.08333333333333333 0.5833333333333334  0.25 0 0.5833333333333334  0.3333333333333333 0 0.5  0.3333333333333333 0.08333333333333333 0.5  0.3333333333333333 0.08333333333333333 0.5833333333333334  0.3333333333333333 0 0.5833333333333334  0.4166666666666667 0 0.5  0.4166666666666667 0.08333333333333333 0.5  0.4166666666666667 0.08333333333333333 0.5833333333333334  0.4166666666666667 0 0.5833333333333334  0.5 0 0.5  0.5 0.08333333333333333 0.5  0.5 0.08333333333333333 0.5833333333333334  0.5 0 0.5833333333333334  0.08333333333333333 0.1666666666666667 0.5  0.08333333333333333 0.1666666666666667 0.5833333333333334  0 0.1666666666666667 0.5  0 0.1666666666666667 0.5833333333333334  0.1666666666666667 0.1666666666666667 0.5  0.1666666666666667 0.1666666666666667 0.5833333333333334  0.25 0.1666666666666667 0.5  0.25 0.1666666666666667 0.5833333333333334  0.3333333333333333 0.1666666666666667 0.5  0.3333333333333333 0.1666666666666667 0.5833333333333334  0.4166666666666667 0.1666666666666667 0.5  0.4166666666666667 0.1666666666666667 0.5833333333333334  0.5 0.1666666666666667 0.5  0.5 0.1666666666666667 0.5833333333333334  0.08333333333333333 0.25 0.5  0.08333333333333333 0.25 0.5833333333333334  0 0.25 0.5  0 0.25 0.5833333333333334  0.1666666666666667 0.25 0.5  0.1666666666666667 0.25 0.5833333333333334  0.25 0.25 0.5  0.25 0.25 0.5833333333333334  0.3333333333333333 0.25 0.5  0.3333333333333333 0.25 0.5833333333333334  0.4166666666666667 0.25 0.5  0.4166666666666667 0.25 0.5833333333333334  0.5 0.25 0.5  0.5 0.25 0.5833333333333334  0.08333333333333333 0.3333333333333333 0.5  0.08333333333333333 0.3333333333333333 0.5833333333333334  0 0.3333333333333333 0.5  0 0.3333333333333333 0.5833333333333334  0.1666666666666667 0.3333333333333333 0.5  0.1666666666666667 0.3333333333333333 0.5833333333333334  0.25 0.3333333333333333 0.5  0.25 0.3333333333333333 0.5833333333333334  0.3333333333333333 0.3333333333333333 0.5  0.3333333333333333 0.3333333333333333 0.5833333333333334  0.4166666666666667 0.3333333333333333 0.5  0.4166666666666667 0.3333333333333333 0.5833333333333334  0.5 0.3333333333333333 0.5  0.5 0.3333333333333333 0.5833333333333334  0.08333333333333333 0.4166666666666667 0.5  0.08333333333333333 0.4166666666666667 0.5833333333333334  0 0.4166666666666667 0.5  0 0.4166666666666667 0.5833333333333334  0.1666666666666667 0.4166666666666667 0.5  0.1666666666666667 0.4166666666666667 0.5833333333333334  0.25 0.4166666666666667 0.5  0.25 0.4166666666666667 0.5833333333333334  0.3333333333333333 0.4166666666666667 0.5  0.3333333333333333 0.4166666666666667 0.5833333333333334  0.4166666666666667 0.4166666666666667 0.5  0.4166666666666667 0.4166666666666667 0.5833333333333334  0.5 0.4166666666666667 0.5  0.5 0.4166666666666667 0.5833333333333334  0.08333333333333333 0.5 0.5  0.08333333333333333 0.5 0.5833333333333334  0 0.5 0.5  0 0.5 0.5833333333333334  0.1666666666666667 0.5 0.5  0.1666666666666667 0.5 0.5833333333333334  0.25 0.5 0.5  0.25 0.5 0.5833333333333334  0.3333333333333333 0.5 0.5  0.3333333333333333 0.5 0.5833333333333334  0.4166666666666667 0.5 0.5  0.4166666666666667 0.5 0.5833333333333334  0.5 0.5 0.5  0.5 0.5 0.5833333333333334  0.08333333333333333 0.5833333333333334 0.5  0.08333333333333333 0.5833333333333334 0.5833333333333334  0 0.5833333333333334 0.5  0 0.5833333333333334 0.5833333333333334  0.1666666666666667 0.5833333333333334 0.5  0.1666666666666667 0.5833333333333334 0.5833333333333334  0.25 0.5833333333333334 0.5  0.25 0.5833333333333334 0.5833333333333334  0.3333333333333333 0.5833333333333334 0.5  0.3333333333333333 0.5833333333333334 0.5833333333333334  0.4166666666666667 0.5833333333333334 0.5  0.4166666666666667 0.5833333333333334 0.5833333333333334  0.5 0.5833333333333334 0.5  0.5 0.5833333333333334 0.5833333333333334  0.08333333333333333 0.6666666666666666 0.5  0.08333333333333333 0.6666666666666666 0.5833333333333334  0 0.6666666666666666 0.5  0 0.6666666666666666 0.5833333333333334  0.1666666666666667 0.6666666666666666 0.5  0.1666666666666667 0.6666666666666666 0.5833333333333334  0.25 0.6666666666666666 0.5  0.25 0.6666666666666666 0.5833333333333334  0.3333333333333333 0.6666666666666666 0.5  0.3333333333333333 0.6666666666666666 0.5833333333333334  0.4166666666666667 0.6666666666666666 0.5  0.4166666666666667 0.6666666666666666 0.5833333333333334  0.5 0.6666666666666666 0.5  0.5 0.6666666666666666 0.5833333333333334  0.08333333333333333 0.75 0.5  0.08333333333333333 0.75 0.5833333333333334  0 0.75 0.5  0 0.75 0.5833333333333334  0.1666666666666667 0.75 0.5  0.1666666666666667 0.75 0.5833333333333334  0.25 0.75 0.5  0.25 0.75 0.5833333333333334  0.3333333333333333 0.75 0.5  0.3333333333333333 0.75 0.5833333333333334  0.4166666666666667 0.75 0.5  0.4166666666666667 0.75 0.5833333333333334  0.5 0.75 0.5  0.5 0.75 0.5833333333333334  0.08333333333333333 0.8333333333333334 0.5  0.08333333333333333 0.8333333333333334 0.5833333333333334  0 0.8333333333333334 0.5  0 0.8333333333333334 0.5833333333333334  0.1666666666666667 0.8333333333333334 0.5  0.1666666666666667 0.8333333333333334 0.5833333333333334  0.25 0.8333333333333334 0.5  0.25 0.8333333333333334 0.5833333333333334  0.3333333333333333 0.8333333333333334 0.5  0.3333333333333333 0.8333333333333334 0.5833333333333334  0.4166666666666667 0.8333333333333334 0.5  0.4166666666666667 0.8333333333333334 0.5833333333333334  0.5 0.8333333333333334 0.5  0.5 0.8333333333333334 0.5833333333333334  0.08333333333333333 0.9166666666666666 0.5  0.08333333333333333 0.9166666666666666 0.5833333333333334  0 0.9166666666666666 0.5  0 0.9166666666666666 0.5833333333333334  0.1666666666666667 0.9166666666666666 0.5  0.1666666666666667 0.9166666666666666 0.5833333333333334  0.25 0.9166666666666666 0.5  0.25 0.9166666666666666 0.5833333333333334  0.3333333333333333 0.9166666666666666 0.5  0.3333333333333333 0.9166666666666666 0.5833333333333334  0.4166666666666667 0.9166666666666666 0.5  0.4166666666666667 0.9166666666666666 0.5833333333333334  0.5 0.9166666666666666 0.5  0.5 0.9166666666666666 0.5833333333333334  0.08333333333333333 1 0.5  0.08333333333333333 1 0.5833333333333334  0 1 0.5  0 1 0.5833333333333334  0.1666666666666667 1 0.5  0.1666666666666667 1 0.5833333333333334  0.25 1 0.5  0.25 1 0.5833333333333334  0.3333333333333333 1 0.5  0.3333333333333333 1 0.5833333333333334  0.4166666666666667 1 0.5  0.4166666666666667 1 0.5833333333333334  0.5 1 0.5  0.5 1 0.5833333333333334  0.08333333333333333 0.08333333333333333 0.6666666666666666  0.08333333333333333 0 0.6666666666666666  0 0 0.6666666666666666  0 0.08333333333333333 0.6666666666666666  0.1666666666666667 0.08333333333333333 0.6666666666666666  0.1666666666666667 0 0.6666666666666666  0.25 0.08333333333333333 0.6666666666666666  0.25 0 0.6666666666666666  0.3333333333333333 0.08333333333333333 0.6666666666666666  0.3333333333333333 0 0.6666666666666666  0.4166666666666667 0.08333333333333333 0.6666666666666666  0.4166666666666667 0 0.6666666666666666  0.5 0.08333333333333333 0.6666666666666666  0.5 0 0.6666666666666666  0.08333333333333333 0.1666666666666667 0.6666666666666666  0 0.1666666666666667 0.6666666666666666  0.1666666666666667 0.1666666666666667 0.6666666666666666  0.25 0.1666666666666667 0.6666666666666666  0.3333333333333333 0.1666666666666667 0.6666666666666666  0.4166666666666667 0.1666666666666667 0.6666666666666666  0.5 0.1666666666666667 0.6666666666666666  0.08333333333333333 0.25 0.6666666666666666  0 0.25 0.6666666666666666  0.1666666666666667 0.25 0.6666666666666666  0.25 0.25 0.6666666666666666  0.3333333333333333 0.25 0.6666666666666666  0.4166666666666667 0.25 0.6666666666666666  0.5 0.25 0.6666666666666666  0.08333333333333333 0.3333333333333333 0.6666666666666666  0 0.3333333333333333 0.6666666666666666  0.1666666666666667 0.3333333333333333 0.6666666666666666  0.25 0.3333333333333333 0.6666666666666666  0.3333333333333333 0.3333333333333333 0.6666666666666666  0.4166666666666667 0.3333333333333333 0.6666666666666666  0.5 0.3333333333333333 0.6666666666666666  0.08333333333333333 0.4166666666666667 0.6666666666666666  0 0.4166666666666667 0.6666666666666666  0.1666666666666667 0.4166666666666667 0.6666666666666666  0.25 0.4166666666666667 0.6666666666666666  0.3333333333333333 0.4166666666666667 0.6666666666666666  0.4166666666666667 0.4166666666666667 0.6666666666666666  0.5 0.4166666666666667 0.6666666666666666  0.08333333333333333 0.5 0.6666666666666666  0 0.5 0.6666666666666666  0.1666666666666667 0.5 0.6666666666666666  0.25 0.5 0.6666666666666666  0.3333333333333333 0.5 0.6666666666666666  0.4166666666666667 0.5 0.6666666666666666  0.5 0.5 0.6666666666666666  0.08333333333333333 0.5833333333333334 0.6666666666666666  0 0.5833333333333334 0.6666666666666666  0.1666666666666667 0.5833333333333334 0.6666666666666666  0.25 0.5833333333333334 0.6666666666666666  0.3333333333333333 0.5833333333333334 0.6666666666666666  0.4166666666666667 0.5833333333333334 0.6666666666666666  0.5 0.5833333333333334 0.6666666666666666  0.08333333333333333 0.6666666666666666 0.6666666666666666  0 0.6666666666666666 0.6666666666666666  0.1666666666666667 0.6666666666666666 0.6666666666666666  0.25 0.6666666666666666 0.6666666666666666  0.3333333333333333 0.6666666666666666 0.666666666
[...]
<PointData  Vectors="u"> 
<DataArray  type="Float64"  Name="u"  NumberOfComponents="3" format="ascii">0.0000000000000000e+00 0.0000000000000000e+00 0.0000000000000000e+00  4.7682997754143856e-02 3.8580964624345619e-02 4.4866198703055786e-05  3.4152756224623798e-02 2.5446162790584759e-02 6.7818371748794552e-06  3.4205953162173917e-02 2.5397342240860727e-02 -3.3057063470082427e-03  4.7705304763127468e-02 3.8528209539643789e-02 -3.3436991108451862e-03  0.0000000000000000e+00 0.0000000000000000e+00 0.0000000000000000e+00  0.0000000000000000e+00 0.0000000000000000e+00 0.0000000000000000e+00  0.0000000000000000e+00 0.0000000000000000e+00 0.0000000000000000e+00  8.3515776722581508e-02 5.6238113774314813e-02 1.0045860074517007e-04  7.2919260804911082e-02 4.2950403394256667e-02 9.2192072091592015e-05  7.3079054715550290e-02 4.2846811146555128e-02 -6.2393320953876971e-03  8.3644488477764747e-02 5.6121339392041308e-02 -6.3760838374484260e-03  1.1956498831238821e-01 6.5861422544942372e-02 1.3405734522122783e-04  1.1255137620078541e-01 5.3162930826090339e-02 1.2264993006249318e-04  1.1282511977620777e-01 5.3023865511668176e-02 -8.6426821619972460e-03  1.1982267704176459e-01 6.5702983088517047e-02 -8.8232796814505018e-03  1.5715052455280212e-01 7.1205062533105226e-02 1.6118371586427472e-04  1.5268418686060523e-01 5.8830847512161673e-02 1.5303381994537292e-04  1.5303412996021745e-01 5.8682679334192168e-02 -1.0359803785175125e-02  1.5750129428939116e-01 7.1035838979089050e-02 -1.0556045448431327e-02  1.9613618658256818e-01 7.4075704865016273e-02 1.8352081007285171e-04  1.9337311007471947e-01 6.1825471012711679e-02 1.7800296859487081e-04  1.9374687654200370e-01 6.1689553510501836e-02 -1.1463469575615339e-02  1.9652290533576336e-01 7.3920527981544318e-02 -1.1645905787531809e-02  2.3617220461393418e-01 7.5498703763181768e-02 2.0283973859771875e-04  2.3451046184376756e-01 6.3266986545242973e-02 1.9920754817927348e-04  2.3486660701356094e-01 6.3155536132386558e-02 -1.2099385939610050e-02  2.3654755291385277e-01 7.5371598657456712e-02 -1.2250537108664672e-02  3.0954572407924142e-02 1.6967652528904593e-02 4.3915095915106819e-05  3.1008856568481957e-02 1.6923047650728808e-02 -3.2626254711310572e-03  0.0000000000000000e+00 0.0000000000000000e+00 0.0000000000000000e+00  0.0000000000000000e+00 0.0000000000000000e+00 0.0000000000000000e+00  6.7579448493777963e-02 3.1120699430542974e-02 8.5294602915480698e-05  6.7741731922546289e-02 3.1035729667444074e-02 -6.2424605539940954e-03  1.0726435815342175e-01 4.0523902285523654e-02 1.2136152101591084e-04  1.0754043471056841e-01 4.0412932044669142e-02 -8.6404159655404430e-03  1.4834985590795843e-01 4.6117542570122225e-02 1.5142260058317972e-04  1.4870048084752918e-01 4.5999764499589216e-02 -1.0355570519954557e-02  1.9008425238058588e-01 4.9181171964196406e-02 1.7617653089216611e-04  1.9045651097564142e-01 4.9072772161455211e-02 -1.1456974963910233e-02  2.3210405609403531e-01 5.0692819825579140e-02 1.9757080600461569e-04  2.3245674128676924e-01 5.0603465088189463e-02 -1.2091571780976657e-02  2.9939140048371057e-02 1.1462594336921322e-02 4.2525236134245827e-05  2.9989628968589845e-02 1.1427375808354715e-02 -3.3003054189859370e-03  0.0000000000000000e+00 0.0000000000000000e+00 0.0000000000000000e+00  0.0000000000000000e+00 0.0000000000000000e+00 0.0000000000000000e+00  6.5124433618305930e-02 2.1554105400067435e-02 8.3971950213594630e-05  6.5282442120107712e-02 2.1491303578989415e-02 -6.3087394964677799e-03  1.0402972849511358e-01 2.8983774243874810e-02 1.2037799036933019e-04  1.0430428023688991e-01 2.8903739011733529e-02 -8.7233259100218691e-03  1.4509514873748286e-01 3.3769492432878065e-02 1.5047807875987542e-04  1.4544729352307295e-01 3.3684785206475512e-02 -1.0440899680858540e-02  1.8722300314361623e-01 3.6541871688776706e-02 1.7524517738482404e-04  1.8759837764551096e-01 3.6463452064658092e-02 -1.1533273196680727e-02  2.2976181275861102e-01 3.7975599570524647e-02 1.9664380259532051e-04  2.3011766612672943e-01 3.7910409381899518e-02 -1.2152806301308442e-02  2.9525810107523712e-02 7.1775025457914074e-03 4.2709765228515394e-05  2.9572820192226044e-02 7.1543095206386183e-03 -3.3456312509753086e-03  0.0000000000000000e+00 0.0000000000000000e+00 0.0000000000000000e+00  0.0000000000000000e+00 0.0000000000000000e+00 0.0000000000000000e+00  6.3935327022441618e-02 1.3627542343329966e-02 8.4608617017985723e-05  6.4089094356699780e-02 1.3587490353287032e-02 -6.3864093700784141e-03  1.0218605822519199e-01 1.8646608449130238e-02 1.2071542758694873e-04  1.0245865241697115e-01 1.8596311715680398e-02 -8.8205470853003013e-03  1.4296884318790359e-01 2.2073871529452182e-02 1.5060299849121953e-04  1.4332227997784472e-01 2.2020657287361665e-02 -1.0542433233652435e-02  1.8514596402047279e-01 2.4160225822910254e-02 1.7521112350763835e-04  1.8552493701726630e-01 2.4110617353137683e-02 -1.1626258014526646e-02  2.2792030376325950e-01 2.5288589004544348e-02 1.9645429165196567e-04  2.2828055113552104e-01 2.5246958498215236e-02 -1.2229454754626765e-02  2.9345472345691202e-02 3.4831391442916096e-03 4.3332796167380861e-05  2.9390311741383669e-02 3.4721390148541344e-03 -3.3788469421425476e-03  0.0000000000000000e+00 0.0000000000000000e+00 0.0000000000000000e+00  0.0000000000000000e+00 0.0000000000000000e+00 0.0000000000000000e+00  6.3373788684485413e-02 6.6436049550709607e-03 8.5520988616805059e-05  6.3524833729708990e-02 6.6249420449986532e-03 -6.4433933804903080e-03  1.0123801191023905e-01 9.1694407166230466e-03 1.2178502295344261e-04  1.0150917345695439e-01 9.1461890265016037e-03 -8.8915253380621347e-03  1.4178572535636849e-01 1.0953526725272474e-02 1.5153118661598766e-04  1.4213981535389525e-01 1.0928869940724777e-02 -1.0617106805476728e-02  1.8391160701532980e-01 1.2076120860509479e-02 1.7588202678992952e-04  1.8429291938196268e-01 1.2052950606677531e-02 -1.1695557947502983e-02  2.2676741890282714e-01 1.2704043950761983e-02 1.9685218376766885e-04  2.2713077463807688e-01 1.2684409869021933e-02 -1.2287425790067979e-02  2.9290271633843203e-02 4.4076987423029338e-05 4.4076987423025306e-05  2.9334335235727978e-02 4.4829048207886326e-05 -3.3904674218822677e-03  0.0000000000000000e+00 0.0000000000000000e+00 0.0000000000000000e+00  0.0000000000000000e+00 0.0000000000000000e+00 0.0000000000000000e+00  6.3199784966444045e-02 8.6735296646091902e-05 8.6735296646093461e-05  6.3349779934786077e-02 8.8180913619427209e-05 -6.4633443973204606e-03  1.0093643119481588e-01 1.2325786679848947e-04 1.2325786679849183e-04  1.0120687667076898e-01 1.2510705652018557e-04 -8.9164186224477988e-03  1.4139733216009784e-01 1.5296015637679446e-04 1.5296015637679934e-04  1.4175137258379958e-01 1.5480983853091411e-04 -1.0643449640970091e-02  1.8349381913707921e-01 1.7705664421253199e-04 1.7705664421254538e-04  1.8387569789119473e-01 1.7862350801987331e-04 -1.1720237633803867e-02  2.2636647537239912e-01 1.9769777134348690e-04 1.9769777134353507e-04  2.2673074949466099e-01 1.9888166614710708e-04 -1.2308290527439749e-02  2.9334335235727982e-02 -3.3904674218822668e-03 4.4829048207884239e-05  2.9378988190233622e-02 -3.3779060656385193e-03 -3.3779060656385176e-03  0.0000000000000000e+00 0.0000000000000000e+00 0.0000000000000000e+00  0.0000000000000000e+00 0.0000000000000000e+00 0.0000000000000000e+00  6.3349779934786091e-02 -6.4633443973204632e-03 8.8180913619431424e-05  6.3500360868687100e-02 -6.4417196593889873e-03 -6.4417196593889812e-03  1.0120687667076900e-01 -8.9164186224478074e-03 1.2510705652018467e-04  1.0147733378390414e-01 -8.8894320034333153e-03 -8.8894320034333153e-03  1.4175137258379958e-01 -1.0643449640970092e-02 1.5480983853091758e-04  1.4210467070815155e-01 -1.0615107294180070e-02 -1.0615107294180073e-02  1.8387569789119473e-01 -1.1720237633803896e-02 1.7862350801990735e-04  1.8425629996162030e-01 -1.1693986590721120e-02 -1.1693986590721100e-02  2.2673074949466102e-01 -1.2308290527439772e-02 1.9888166614711431e-04  2.2709357559485552e-01 -1.2286356628892525e-02 -1.2286356628892487e-02  2.9499125845397638e-02 -7.0692672050549450e-03 4.5432055256893660e-05  2.9545746610645691e-02 -7.0444022990279239e-03 -3.3440495355224970e-03  0.0000000000000000e+00 0.0000000000000000e+00 0.0000000000000000e+00  0.0000000000000000e+00 0.0000000000000000e+00 0.0000000000000000e+00  6.3881442394582266e-02 -1.3423571261753781e-02 8.9931625055969335e-05  6.4034248995524332e-02 -1.3380423271750727e-02 -6.3831828615940611e-03  1.0212061394365281e-01 -1.8373112879475191e-02 1.2749115916219623e-04  1.0239177268489778e-01 -1.8319031792561089e-02 -8.8164020600625444e-03  1.4289869472451935e-01 -2.1752651011121747e-02 1.5712559938686589e-04  1.4325056064614422e-01 -2.1695826180456085e-02 -1.0538631922786120e-02  1.8507341196855517e-01 -2.3800479810480960e-02 1.8052998696739314e-04  1.8545102220847828e-01 -2.3747958065217723e-02 -1.1623391957476498e-02  2.2784664768504628e-01 -2.4892560627222025e-02 2.0032109187144160e-04  2.2820591564174666e-01 -2.4848826011249325e-02 -1.2227565808150157e-02  2.9883360791260458e-02 -1.1317756513841426e-02 4.5434633512338392e-05  2.9933250055747616e-02 -1.1280848130250924e-02 -3.2991729994878028e-03  0.0000000000000000e+00 0.0000000000000000e+00 0.0000000000000000e+00  0.0000000000000000e+00 0.0000000000000000e+00 0.0000000000000000e+00  6.5028483038331170e-02 -2.1295428599315911e-02 9.2455509191877934e-05  6.5185011200990017e-02 -2.1229522629174252e-02 -6.3036727507340086e-03  1.0392552196172936e-01 -2.8676907897693171e-02 1.3072798437268774e-04  1.0419790639856977e-01 -2.8593160932570347e-02 -8.7172789192412631e-03  1.4498699945106913e-01 -3.3436382782009728e-02 1.5990991676772043e-04  1.4533686367305126e-01 -3.3348261144743409e-02 -1.0435857539652676e-02  1.8711252140554954e-01 -3.6180523500062033e-02 1.8268790990773673e-04  1.8748601449889402e-01 -3.6099471860134263e-02 -1.1529698658707272e-02  2.2965082540365828e-01 -3.7581204030190739e-02 2.0194092729897218e-04  2.3000540523197666e-01 -3.7514198498065796e-02 -1.2150554799390723e-02  3.0835088685215357e-02 -1.6707996353370190e-02 4.5452997606239619e-05  3.0888599010307081e-02 -1.6661856352590043e-02 -3.2637557015937962e-03  0.0000000000000000e+00 0.0000000000000000e+00 0.0000000000000000e+00  0.0000000000000000e+00 0.0000000000000000e+00 0.0000000000000000e+00  6.7432552331587958e-02 -3.0759942244786859e-02 9.7630785492388702e-05  6.7592860260876408e-02 -3.0672148909157908e-02 -6.2352370158637429e-03  1.0711801936640060e-01 -4.0191865970622159e-02 1.3473774800706778e-04  1.0739126962796505e-01 -4.0077438817103336e-02 -8.6332822188441207e-03  1.4820054857657719e-01 -4.5786152532347878e-02 1.6269988181980677e-04  1.4854832857501585e-01 -4.5665236384012528e-02 -1.0350453251049380e-02  1.8993507723232780e-01 -4.8825153524638641e-02 1.8485788797433794e-04  1.9030513109321101e-01 -4.8714429026767300e-02 -1.1453555494942577e-02  2.3195650912010654e-01 -5.0302310749972282e-02 2.0366395691643173e-04  2.3230782960840601e-01 -5.0211432477526484e-02 -1.2089519619733173e-02  3.3846952215907798e-02 -2.4635796779407554e-02 6.5970162390979861e-05  3.3899235817374293e-02 -2.4585827459519316e-02 -3.2513555402093187e-03  0.0000000000000000e+00 0.0000000000000000e+00 0.0000000000000000e+00  0.0000000000000000e+00 0.0000000000000000e+00 0.0000000000000000e+00  7.2731688483428467e-02 -4.2586409677815400e-02 1.0577769648680450e-04  7.2889045098786492e-02 -4.2480428724698358e-02 -6.2333375074582050e-03  1.1235768605029835e-01 -5.2870846476875052e-02 1.3627022273230704e-04  1.1262799949132427e-01 -5.2728412801605319e-02 -8.6374470488559101e-03  1.5249696640237906e-01 -5.8516850323405006e-02 1.6411278760325714e-04  1.5284362521184877e-01 -5.8365463751014257e-02 -1.0356492372683653e-02  1.9319027469240616e-01 -6.1473502621866266e-02 1.8663318601365407e-04  1.9356171427476199e-01 -6.1335192680280100e-02 -1.1461209582380696e-02  2.3432959234542608e-01 -6.2875760895483038e-02 2.0535453322944922e-04  2.3468450277955202e-01 -6.2762770705406187e-02 -1.2098018779030698e-02  4.7358834246219179e-02 -3.8394549672421022e-02 1.4217695345492787e-04  4.7380068620180960e-02 -3.8340913947328137e-02 -3.2536392827668499e-03  0.0000000000000000e+00 0.0000000000000000e+00 0.0000000000000000e+00  0.0000000000000000e+00 0.0000000000000000e+00 0.0000000000000000e+00  8.3417750778203306e-02 -5.6001530735697747e-02 7.6327466815385124e-05  8.3543832343281055e-02 -5.5880958590671576e-02 -6.4112501150241641e-03  1.1939724982882341e-01 -6.5541341799614669e-02 1.2325134199305584e-04  1.1965190931476974e-01 -6.5377612268325710e-02 -8.8456223531793166e-03  1.5695409335240834e-01 -7.0846606195241399e-02 1.5971483333917345e-04  1.5730264431478344e-01 -7.0672314503458150e-02 -1.0567720121809315e-02  1.9593059261460288e-01 -7.3688576788195334e-02 1.8495564803190144e-04  1.9631632866491622e-01 -7.3529428434244815e-02 -1.1652475336492258e-02  2.3596277998799531e-01 -7.5082267452932561e-02 2.0454778794958597e-04  2.3633808991558972e-01 -7.4952387909433274e-02 -1.2254534815319523e-02  3.4402446255862092e-02 2.5246786816532855e-02 -6.8228105749263265e-03  4.7805694595824948e-02 3.8368934804051104e-02 -6.9273372918658444e-03  0.0000000000000000e+00 0.0000000000000000e+00 0.0000000000000000e+00  0.0000000000000000e+00 0.0000000000000000e+00 0.0000000000000000e+00  7.3642349341015781e-02 4.2528586329733352e-02 -1.2906969035622426e-02  8.4113468056751767e-02 5.5758156831430823e-02 -1.3176990819155594e-02  1.1374522313243869e-01 5.2601541913451774e-02 -1.7734250726403476e-02  1.2069901325103510e-01 6.5214354308569103e-02 -1.8088151934945493e-02  1.5416346308589335e-01 5.8240629698956749e-02 -2.1098641490913117e-02  1.5863925544527205e-01 7.0523716614444759e-02 -2.1471219490635060e-02  1.9491635842629179e-01 6.1291536297478411e-02 -2.3217192274977191e-02  1.9773571288505221e-01 7.3460095337350872e-02 -2.3554236696162516e-02  2.3595721150631407e-01 6.2834515259845333e-02 -2.4424679605385562e-02  2.3769744237838575e-01 7.5000856334160815e-02 -2.4697994546113305e-02  3.1206505336671755e-02 1.6787554312339237e-02 -6.7903597441178899e-03  0.0000000000000000e+00 0.0000000000000000e+00 0.0000000000000000e+00  6.8310362551072215e-02 3.0779676399551942e-02 -1.2936476770505778e-02  1.0846762128250872e-01 4.0081939311176755e-02 -1.7764937202478345e-02  1.4983301576624428e-01 4.5653624440544001e-02 -2.1124108717215446e-02  1.9162253095193346e-01 4.8759245247613069e-02 -2.3232729513834635e-02  2.3353765296734108e-01 5.0348788956383887e-02 -2.4431074652675688e-02  3.0174307612901161e-02 1.1322624016969764e-02 -6.8779428254338139e-03  0.0000000000000000e+00 0.0000000000000000e+00 0.0000000000000000e+00  6.5837406544553043e-02 2.1305771961136213e-02 -1.3092107771998618e-02  1.0522781908840172e-01 2.8669026502903153e-02 -1.7958693723902516e-02  1.4658608596656242e-01 3.3439078501119567e-02 -2.1320497771611931e-02  1.8877493738988818e-01 3.6238888574144444e-02 -2.3405329922641438e-02  2.3120835947177670e-01 3.7726061454192002e-02 -2.4567361727680235e-02  2.9746445745248436e-02 7.0863230798664349e-03 -6.9756126299645440e-03  0.0000000000000000e+00 0.0000000000000000e+00 0.0000000000000000e+00  6.4631337305464331e-02 1.3470701172211970e-02 -1.3261226844432202e-02  1.0337729382492197e-01 1.8450320419939423e-02 -1.8169850224582569e-02  1.4446615891063616e-01 2.1867391324408111e-02 -2.1539157309487151e-02  1.8671292882368995e-01 2.3969211683683021e-02 -2.3603327663897347e-02  2.2938424470476426e-01 2.5129593152212176e-02 -2.4728656797886099e-02  2.9557326488688390e-02 3.4396070949011029e-03 -7.0449095444273593e-03  0.0000000000000000e+00 0.0000000000000000e+00 0.0000000000000000e+00  6.4059229408447493e-02 6.5700547092899138e-03 -1.3381282652805507e-02  1.0242434066936064e-01 9.0780035680438319e-03 -1.8320018525220898e-02  1.4328651415572805e-01 1.0857010052427436e-02 -2.1696576934883621e-02  1.8548835829943147e-01 1.1986095885878151e-02 -2.3748317558742012e-02  2.2824364788957921e-01 1.2628411026808421e-02 -2.4848866024837251e-02  2.9499125845397638e-02 4.5432055256892420e-05 -7.0692672050549467e-03  0.0000000000000000e+00 0.0000000000000000e+00 0.0000000000000000e+00  6.3881442394582280e-02 8.9931625055960905e-05 -1.3423571261753775e-02  1.0212061394365281e-01 1.2749115916220065e-04 -1.8373112879475188e-02  1.4289869472451933e-01 1.5712559938685738e-04 -2.1752651011121737e-02  1.8507341196855515e-01 1.8052998696736834e-04 -2.3800479810480928e-02  2.2784664768504626e-01 2.0032109187142409e-04 -2.4892560627221991e-02  2.9545746610645688e-02 -3.3440495355224987e-03 -7.0444022990279170e-03  0.0000000000000000e+00 0.0000000000000000e+00 0.0000000000000000e+00  6.4034248995524332e-02 -6.3831828615940620e-03 -1.3380423271750732e-02  1.0239177268489780e-01 -8.8164020600625496e-03 -1.8319031792561093e-02  1.4325056064614419e-01 -1.0538631922786123e-02 -2.1695826180456072e-02  1.8545102220847826e-01 -1.1623391957476508e-02 -2.3747958065217706e-02  2.2820591564174666e-01 -1.2227565808150181e-02 -2.4848826011249298e-02  2.9718766833706878e-02 -6.9747806666244196e-03 -6.9747806666244135e-03  0.0000000000000000e+00 0.0000000000000000e+00 0.0000000000000000e+00  6.4575380753215228e-02 -1.3259604338037188e-02 -1.3259604338037191e-02  1.0330890110660813e-01 -1.8168034085210168e-02 -1.8168034085210172e-02  1.4439285987293529e-01 -2.1538033130641208e-02 -2.1538033130641208e-02  1.8663770264308036e-01 -2.3603036684579498e-02 -2.3603036684579477e-02  2.2930868939582658e-01 -2.4728912187170014e-02 -2.4728912187169983e-02  3.0116810843725087e-02 -1.1174129907311314e-02 -6.8775552518701467e-03  0.0000000000000000e+00 0.0000000000000000e+00 0.0000000000000000e+00  6.5738106178952496e-02 -2.1039582467213575e-02 -1.3089334571519720e-02  1.0511909125696894e-01 -2.8353380772162502e-02 -1.7956370859245206e-02  1.4647345469361284e-01 -3.3098259496264201e-02 -2.1319828010385310e-02  1.8866095453852788e-01 -3.5871744980589843e-02 -2.3405895017964740e-02  2.3109508646401158e-01 -3.7327637461223306e-02 -2.4568463746163411e-02  3.1084512083908025e-02 -1.6524386096569664e-02 -6.7920247618749657e-03  0.0000000000000000e+00 0.0000000000000000e+00 0.0000000000000000e+00  6.8158671782429334e-02 -3.0411773232079393e-02 -1.2932331656792192e-02  1.0831527257858038e-01 -3.9741590406405986e-02 -1.7763095000539946e-02  1.4967836902037160e-01 -4.5315123668665823e-02 -2.1125169909164375e-02  1.9146966794798073e-01 -4.8398096523380181e-02 -2.3235017567045265e-02  2.3338802779658965e-01 -4.9954859902752315e-02 -2.4433516306919083e-02  3.4093832490092679e-02 -2.4434215708925091e-02 -6.7709882196655396e-03  0.0000000000000000e+00 0.0000000000000000e+00 0.0000000000000000e+00  7.3448219007588730e-02 -4.2158282859891684e-02 -1.2906229101531675e-02  1.1354415257745737e-01 -5.2301032990110845e-02 -1.7736053319651512e-02  1.5397052635249941e-01 -5.7919251481955952e-02 -2.1102929365322688e-02  1.9473026692225920e-01 -6.0934366718915563e-02 -2.3221726115767966e-02  2.3577505223287290e-01 -6.2439967637018055e-02 -2.4428557761129888e-02  4.7480263304713687e-02 -3.8177301930633546e-02 -6.8483546768309915e-03  0.0000000000000000e+00 0.0000000000000000e+00 0.0000000000000000e+00  8.4010636066761485e-02 -5.5509528268919354e-02 -1.3225119165156328e-02  1.2052613186249031e-01 -6.4880593415210921e-02 -1.8121869788871651e-02  1.5844023580014352e-01 -7.0153767851229051e-02 -2.1492832255309593e-02  1.9753021608048799e-01 -7.3064735619739418e-02 -2.3568879507548990e-02  2.3748949365395222e-01 -7.4579016316642890e-02 -2.4707831214627701e-02  3.4857482749434079e-02 2.4996738251006671e-02 -1.0837491570272790e-02  4.8097135896464915e-02 3.8106772249297434e-02 -1.0983280702559118e-02  0.0000000000000000e+00 0.0000000000000000e+00 0.0000000000000000e+00  0.0000000000000000e+00 0.0000000000000000e+00 0.0000000000000000e+00  7.4854321281845632e-02 4.1996338730810420e-02 -2.0337673921143638e-02  8.5175170077680204e-02 5.5129900084689168e-02 -2.0707731571309056e-02  1.1555557545926477e-01 5.1913818711800203e-02 -2.7493478981593919e-02  1.2245373264894505e-01 6.4391