<?xml version="1.0"?>
<VTKFile type="UnstructuredGrid"  version="0.1"  >
<UnstructuredGrid>
<Piece  NumberOfPoints="649" NumberOfCells="2662">
<Points>
<DataArray  type="Float64"  NumberOfComponents="3"  format="ascii">0 0 0  0.08333333333333333 0 0  0.08333333333333333 0.08333333333333333 0  0.08333333333333333 0.08333333333333333 0.08333333333333333  0.08333333333333333 0 0.08333333333333333  0 0 0.08333333333333333  0 0.08333333333333333 0  0 0.08333333333333333 0.08333333333333333  0.1666666666666667 0 0  0.1666666666666667 0.08333333333333333 0  0.1666666666666667 0.08333333333333333 0.08333333333333333  0.1666666666666667 0 0.08333333333333333  0.25 0 0  0.25 0.08333333333333333 0  0.25 0.08333333333333333 0.08333333333333333  0.25 0 0.08333333333333333  0.3333333333333333 0 0  0.3333333333333333 0.08333333333333333 0  0.3333333333333333 0.08333333333333333 0.08333333333333333  0.3333333333333333 0 0.08333333333333333  0.4166666666666667 0 0  0.4166666666666667 0.08333333333333333 0  0.4166666666666667 0.08333333333333333 0.08333333333333333  0.4166666666666667 0 0.08333333333333333  0.5 0 0  0.5 0.08333333333333333 0  0.5 0.08333333333333333 0.08333333333333333  0.5 0 0.08333333333333333  0.08333333333333333 0.1666666666666667 0  0.08333333333333333 0.1666666666666667 0.08333333333333333  0 0.1666666666666667 0  0 0.1666666666666667 0.08333333333333333  0.1666666666666667 0.1666666666666667 0  0.1666666666666667 0.1666666666666667 0.08333333333333333  0.25 0.1666666666666667 0  0.25 0.1666666666666667 0.08333333333333333  0.3333333333333333 0.1666666666666667 0  0.3333333333333333 0.1666666666666667 0.08333333333333333  0.4166666666666667 0.1666666666666667 0  0.4166666666666667 0.1666666666666667 0.08333333333333333  0.5 0.1666666666666667 0  0.5 0.1666666666666667 0.08333333333333333  0.08333333333333333 0.25 0  0.08333333333333333 0.25 0.08333333333333333  0 0.25 0  0 0.25 0.08333333333333333  0.1666666666666667 0.25 0  0.1666666666666667 0.25 0.08333333333333333  0.25 0.25 0  0.25 0.25 0.08333333333333333  0.3333333333333333 0.25 0  0.3333333333333333 0.25 0.08333333333333333  0.4166666666666667 0.25 0  0.4166666666666667 0.25 0.08333333333333333  0.5 0.25 0  0.5 0.25 0.08333333333333333  0.08333333333333333 0.3333333333333333 0  0.08333333333333333 0.3333333333333333 0.08333333333333333  0 0.3333333333333333 0  0 0.3333333333333333 0.08333333333333333  0.1666666666666667 0.3333333333333333 0  0.1666666666666667 0.3333333333333333 0.08333333333333333  0.25 0.3333333333333333 0  0.25 0.3333333333333333 0.08333333333333333  0.3333333333333333 0.3333333333333333 0  0.3333333333333333 0.3333333333333333 0.08333333333333333  0.4166666666666667 0.3333333333333333 0  0.4166666666666667 0.3333333333333333 0.08333333333333333  0.5 0.3333333333333333 0  0.5 0.3333333333333333 0.08333333333333333  0.08333333333333333 0.4166666666666667 0  0.08333333333333333 0.4166666666666667 0.08333333333333333  0 0.4166666666666667 0  0 0.4166666666666667 0.08333333333333333  0.1666666666666667 0.4166666666666667 0  0.1666666666666667 0.4166666666666667 0.08333333333333333  0.25 0.4166666666666667 0  0.25 0.4166666666666667 0.08333333333333333  0.3333333333333333 0.4166666666666667 0  0.3333333333333333 0.4166666666666667 0.08333333333333333  0.4166666666666667 0.4166666666666667 0  0.4166666666666667 0.4166666666666667 0.08333333333333333  0.5 0.4166666666666667 0  0.5 0.4166666666666667 0.08333333333333333  0.08333333333333333 0.5 0  0.08333333333333333 0.5 0.08333333333333333  0 0.5 0  0 0.5 0.08333333333333333  0.1666666666666667 0.5 0  0.1666666666666667 0.5 0.08333333333333333  0.25 0.5 0  0.25 0.5 0.08333333333333333  0.3333333333333333 0.5 0  0.3333333333333333 0.5 0.08333333333333333  0.4166666666666667 0.5 0  0.4166666666666667 0.5 0.08333333333333333  0.5 0.5 0  0.5 0.5 0.08333333333333333  0.08333333333333333 0.5833333333333334 0  0.08333333333333333 0.5833333333333334 0.08333333333333333  0 0.5833333333333334 0  0 0.5833333333333334 0.08333333333333333  0.1666666666666667 0.5833333333333334 0  0.1666666666666667 0.5833333333333334 0.08333333333333333  0.25 0.5833333333333334 0  0.25 0.5833333333333334 0.08333333333333333  0.3333333333333333 0.5833333333333334 0  0.3333333333333333 0.5833333333333334 0.08333333333333333  0.4166666666666667 0.5833333333333334 0  0.4166666666666667 0.5833333333333334 0.08333333333333333  0.5 0.5833333333333334 0  0.5 0.5833333333333334 0.08333333333333333  0.08333333333333333 0.6666666666666666 0  0.08333333333333333 0.6666666666666666 0.08333333333333333  0 0.6666666666666666 0  0 0.6666666666666666 0.08333333333333333  0.1666666666666667 0.6666666666666666 0  0.1666666666666667 0.6666666666666666 0.08333333333333333  0.25 0.6666666666666666 0  0.25 0.6666666666666666 0.08333333333333333  0.3333333333333333 0.6666666666666666 0  0.3333333333333333 0.6666666666666666 0.08333333333333333  0.4166666666666667 0.6666666666666666 0  0.4166666666666667 0.6666666666666666 0.08333333333333333  0.5 0.6666666666666666 0  0.5 0.6666666666666666 0.08333333333333333  0.08333333333333333 0.75 0  0.08333333333333333 0.75 0.08333333333333333  0 0.75 0  0 0.75 0.08333333333333333  0.1666666666666667 0.75 0  0.1666666666666667 0.75 0.08333333333333333  0.25 0.75 0  0.25 0.75 0.08333333333333333  0.3333333333333333 0.75 0  0.3333333333333333 0.75 0.08333333333333333  0.4166666666666667 0.75 0  0.4166666666666667 0.75 0.08333333333333333  0.5 0.75 0  0.5 0.75 0.08333333333333333  0.08333333333333333 0.8333333333333334 0  0.08333333333333333 0.8333333333333334 0.08333333333333333  0 0.8333333333333334 0  0 0.8333333333333334 0.08333333333333333  0.1666666666666667 0.8333333333333334 0  0.1666666666666667 0.8333333333333334 0.08333333333333333  0.25 0.8333333333333334 0  0.25 0.8333333333333334 0.08333333333333333  0.3333333333333333 0.8333333333333334 0  0.3333333333333333 0.8333333333333334 0.08333333333333333  0.4166666666666667 0.8333333333333334 0  0.4166666666666667 0.8333333333333334 0.08333333333333333  0.5 0.8333333333333334 0  0.5 0.8333333333333334 0.08333333333333333  0.08333333333333333 0.9166666666666666 0  0.08333333333333333 0.9166666666666666 0.08333333333333333  0 0.9166666666666666 0  0 0.9166666666666666 0.08333333333333333  0.1666666666666667 0.9166666666666666 0  0.1666666666666667 0.9166666666666666 0.08333333333333333  0.25 0.9166666666666666 0  0.25 0.9166666666666666 0.08333333333333333  0.3333333333333333 0.9166666666666666 0  0.3333333333333333 0.9166666666666666 0.08333333333333333  0.4166666666666667 0.9166666666666666 0  0.4166666666666667 0.9166666666666666 0.08333333333333333  0.5 0.9166666666666666 0  0.5 0.9166666666666666 0.08333333333333333  0.08333333333333333 1 0  0.08333333333333333 1 0.08333333333333333  0 1 0  0 1 0.08333333333333333  0.1666666666666667 1 0  0.1666666666666667 1 0.08333333333333333  0.25 1 0  0.25 1 0.08333333333333333  0.3333333333333333 1 0  0.3333333333333333 1 0.08333333333333333  0.4166666666666667 1 0  0.4166666666666667 1 0.08333333333333333  0.5 1 0  0.5 1 0.08333333333333333  0.08333333333333333 0.08333333333333333 0.1666666666666667  0.08333333333333333 0 0.1666666666666667  0 0 0.1666666666666667  0 0.08333333333333333 0.1666666666666667  0.1666666666666667 0.08333333333333333 0.1666666666666667  0.1666666666666667 0 0.1666666666666667  0.25 0.08333333333333333 0.1666666666666667  0.25 0 0.1666666666666667  0.3333333333333333 0.08333333333333333 0.1666666666666667  0.3333333333333333 0 0.1666666666666667  0.4166666666666667 0.08333333333333333 0.1666666666666667  0.4166666666666667 0 0.1666666666666667  0.5 0.08333333333333333 0.1666666666666667  0.5 0 0.1666666666666667  0.08333333333333333 0.1666666666666667 0.1666666666666667  0 0.1666666666666667 0.1666666666666667  0.1666666666666667 0.1666666666666667 0.1666666666666667  0.25 0.1666666666666667 0.1666666666666667  0.3333333333333333 0.1666666666666667 0.1666666666666667  0.4166666666666667 0.1666666666666667 0.1666666666666667  0.5 0.1666666666666667 0.1666666666666667  0.08333333333333333 0.25 0.1666666666666667  0 0.25 0.1666666666666667  0.1666666666666667 0.25 0.1666666666666667  0.25 0.25 0.1666666666666667  0.3333333333333333 0.25 0.1666666666666667  0.4166666666666667 0.25 0.1666666666666667  0.5 0.25 0.1666666666666667  0.08333333333333333 0.3333333333333333 0.1666666666666667  0 0.3333333333333333 0.1666666666666667  0.1666666666666667 0.3333333333333333 0.1666666666666667  0.25 0.3333333333333333 0.1666666666666667  0.3333333333333333 0.3333333333333333 0.1666666666666667  0.4166666666666667 0.3333333333333333 0.1666666666666667  0.5 0.3333333333333333 0.1666666666666667  0.08333333333333333 0.4166666666666667 0.1666666666666667  0 0.4166666666666667 0.1666666666666667  0.1666666666666667 0.4166666666666667 0.1666666666666667  0.25 0.4166666666666667 0.1666666666666667  0.3333333333333333 0.4166666666666667 0.1666666666666667  0.4166666666666667 0.4166666666666667 0.1666666666666667  0.5 0.4166666666666667 0.1666666666666667  0.08333333333333333 0.5 0.1666666666666667  0 0.5 0.1666666666666667  0.1666666666666667 0.5 0.1666666666666667  0.25 0.5 0.1666666666666667  0.3333333333333333 0.5 0.1666666666666667  0.4166666666666667 0.5 0.1666666666666667  0.5 0.5 0.1666666666666667  0.08333333333333333 0.5833333333333334 0.1666666666666667  0 0.5833333333333334 0.1666666666666667  0.1666666666666667 0.5833333333333334 0.1666666666666667  0.25 0.5833333333333334 0.1666666666666667  0.3333333333333333 0.5833333333333334 0.1666666666666667  0.4166666666666667 0.5833333333333334 0.1666666666666667  0.5 0.5833333333333334 0.1666666666666667  0.08333333333333333 0.6666666666666666 0.1666666666666667  0 0.6666666666666666 0.1666666666666667  0.1666666666666667 0.6666666666666666 0.1666666666666667  0.25 0.6666666666666666 0.1666666666666667  0.3333333333333333 0.6666666666666666 0.1666666666666667  0.4166666666666667 0.6666666666666666 0.1666666666666667  0.5 0.6666666666666666 0
[...]
<PointData  Vectors="f_18"> 
<DataArray  type="Float64"  Name="f_18"  NumberOfComponents="3" format="ascii">0.0000000000000000e+00 0.0000000000000000e+00 0.0000000000000000e+00  1.7057391083823925e-02 1.7031166907542219e-02 1.7031166907542215e-02  1.1699984765645264e-02 1.1591022195747378e-02 1.7551642176442384e-02  6.2662875725402372e-03 1.1709731840789593e-02 1.1709731840789588e-02  1.1699984765645271e-02 1.7551642176442384e-02 1.1591022195747371e-02  0.0000000000000000e+00 0.0000000000000000e+00 0.0000000000000000e+00  0.0000000000000000e+00 0.0000000000000000e+00 0.0000000000000000e+00  0.0000000000000000e+00 0.0000000000000000e+00 0.0000000000000000e+00  2.5437309618144908e-02 2.3272970812979552e-02 2.3272970812979552e-02  2.1112131957993809e-02 1.8670592066160299e-02 2.3976345151735606e-02  1.6873809206757569e-02 1.8658809259593217e-02 1.8658809259593217e-02  2.1112131957993819e-02 2.3976345151735606e-02 1.8670592066160299e-02  3.3059117643684216e-02 2.6974014251761574e-02 2.6974014251761557e-02  3.0034290408802136e-02 2.2648167267179987e-02 2.7392094687961593e-02  2.7220045978363621e-02 2.2596460521131543e-02 2.2596460521131546e-02  3.0034290408802140e-02 2.7392094687961600e-02 2.2648167267179969e-02  4.1004312725554104e-02 2.9261263268104132e-02 2.9261263268104108e-02  3.8936165729430358e-02 2.4908630638877625e-02 2.9519090676405416e-02  3.7055403870732431e-02 2.4860766102238537e-02 2.4860766102238533e-02  3.8936165729430379e-02 2.9519090676405423e-02 2.4908630638877608e-02  4.9488057038316817e-02 3.0689764841834867e-02 3.0689764841834870e-02  4.8087748948852836e-02 2.6184491979288925e-02 3.0853119775043361e-02  4.6826359064370111e-02 2.6144885229976662e-02 2.6144885229976655e-02  4.8087748948852836e-02 3.0853119775043361e-02 2.6184491979288921e-02  5.8534018876432586e-02 3.1572719339361080e-02 3.1572719339361073e-02  5.7590147805898557e-02 2.6877612925626512e-02 3.1674801686906326e-02  5.6745243551193383e-02 2.6846485900663245e-02 2.6846485900663242e-02  5.7590147805898564e-02 3.1674801686906333e-02 2.6877612925626501e-02  1.0664248124205635e-02 7.9859063783727265e-03 1.8398089404228282e-02  5.0688323248889973e-03 7.7120250832911665e-03 1.2324284670903355e-02  0.0000000000000000e+00 0.0000000000000000e+00 0.0000000000000000e+00  0.0000000000000000e+00 0.0000000000000000e+00 0.0000000000000000e+00  1.8971980139996857e-02 1.4145111017317186e-02 2.4968844874622809e-02  1.4600013657541886e-02 1.3899276609173738e-02 1.9476324081611290e-02  2.7773741859258533e-02 1.7989589977058219e-02 2.8294911559705250e-02  2.4930971616929247e-02 1.7709231505841146e-02 2.3314776409794118e-02  3.7002890973754518e-02 2.0189974457386822e-02 3.0200194619713350e-02  3.5164430446052594e-02 1.9937912527775558e-02 2.5415908321264804e-02  4.6562636758294175e-02 2.1370571943873512e-02 3.1333334056316046e-02  4.5367735972324214e-02 2.1168651371646526e-02 2.6540015524573270e-02  5.6427014818138228e-02 2.1948032264544025e-02 3.1997616597610141e-02  5.5650172181687822e-02 2.1798776072709074e-02 2.7110944486751200e-02  1.0333640376336686e-02 5.5269009424857079e-03 1.8870483871730074e-02  4.5731954478611236e-03 5.2499263880735857e-03 1.2772790956482392e-02  0.0000000000000000e+00 0.0000000000000000e+00 0.0000000000000000e+00  0.0000000000000000e+00 0.0000000000000000e+00 0.0000000000000000e+00  1.7947878096808943e-02 1.0108459846410411e-02 2.5838104020510986e-02  1.3465083044576035e-02 9.8024820381864258e-03 2.0267214479552320e-02  2.6318431049301004e-02 1.3288483719610285e-02 2.9219997506771567e-02  2.3463167629115655e-02 1.2947684169957775e-02 2.4160724836604877e-02  3.5488589228957292e-02 1.5219705587023433e-02 3.0994625612051307e-02  3.3698771072867895e-02 1.4900805519792028e-02 2.6144844890285436e-02  4.5199609514625518e-02 1.6266770531451473e-02 3.1943740708205624e-02  4.4077328512015845e-02 1.6001556738014504e-02 2.7104148018634009e-02  5.5286418774804218e-02 1.6759375594157539e-02 3.2432296958868206e-02  5.4585410989154509e-02 1.6557608291016369e-02 2.7514028882052271e-02  1.0217035750065932e-02 3.5385446067805405e-03 1.9184368297498644e-02  4.3408835603529084e-03 3.3255831443328898e-03 1.3087885175153802e-02  0.0000000000000000e+00 0.0000000000000000e+00 0.0000000000000000e+00  0.0000000000000000e+00 0.0000000000000000e+00 0.0000000000000000e+00  1.7450730494862274e-02 6.5516661785765991e-03 2.6436486396865386e-02  1.2864830748729697e-02 6.3059339455587959e-03 2.0848288602323468e-02  2.5461230623638826e-02 8.7740538897775402e-03 2.9924696616481727e-02  2.2576198640927286e-02 8.4946782518492484e-03 2.4832709610667698e-02  3.4460898994648222e-02 1.0197260885432739e-02 3.1654270050661841e-02  3.2700580144355972e-02 9.9272547634902102e-03 2.6772241817841141e-02  4.4175330466318538e-02 1.0995137081600277e-02 3.2485397694430145e-02  4.3111381207510104e-02 1.0763110108883443e-02 2.7619996927627007e-02  5.4364113922188255e-02 1.1374705008769021e-02 3.2837662002830649e-02  5.3729253656443036e-02 1.1193395723985623e-02 2.7900910663970796e-02  1.0172205004406128e-02 1.7747198140700918e-03 1.9367817336603851e-02  4.2286569241456635e-03 1.6389145441792995e-03 1.3272558965491853e-02  0.0000000000000000e+00 0.0000000000000000e+00 0.0000000000000000e+00  0.0000000000000000e+00 0.0000000000000000e+00 0.0000000000000000e+00  1.7212375619060388e-02 3.2954311121836657e-03 2.6784666410647747e-02  1.2558831100653688e-02 3.1527271233658611e-03 2.1194334506171229e-02  2.5008359580860701e-02 4.4491796141567664e-03 3.0355300054533109e-02  2.2096356723794171e-02 4.2873147729237315e-03 2.5251604097795140e-02  3.3870859552493131e-02 5.2145639208709014e-03 3.2077709205850978e-02  3.2122434888279712e-02 5.0576973870735216e-03 2.7180569272005479e-02  4.3547050747595899e-02 5.6582618210371961e-03 3.2847278932638023e-02  4.2517959464044679e-02 5.5216154048727374e-03 2.7968105619833237e-02  5.3768776169607173e-02 5.8771884661441200e-03 3.3117226686629052e-02  5.3177349320152570e-02 5.7686291708383859e-03 2.8169840584964242e-02  1.0150366989326566e-02 1.1034667025868692e-04 1.9431516001281738e-02  4.1853910589755650e-03 5.1321919725080450e-05 1.3335200335088386e-02  0.0000000000000000e+00 0.0000000000000000e+00 0.0000000000000000e+00  0.0000000000000000e+00 0.0000000000000000e+00 0.0000000000000000e+00  1.7128376772479852e-02 1.8374847794056618e-04 2.6903832394431698e-02  1.2450605271455681e-02 1.5598553963875716e-04 2.1311369465700770e-02  2.4854991091151014e-02 2.3579484480877721e-04 3.0505993301898918e-02  2.1930718028776389e-02 2.1193062661265181e-04 2.5396686322576443e-02  3.3666851268552477e-02 2.7551617244794406e-04 3.2229908669152839e-02  3.1919750433272887e-02 2.5778117068154410e-04 2.7325467435206065e-02  4.3322104120475727e-02 3.0662892194603902e-04 3.2980001947230539e-02  4.2303761515811486e-02 2.9300502605760485e-04 2.8093864828404921e-02  5.3547810948689586e-02 3.3208537797403583e-04 3.3221298446438216e-02  5.2971516395271624e-02 3.2150580585330670e-04 2.8268323661672583e-02  1.0136571378186384e-02 -1.5420986676904325e-03 1.9379972179373432e-02  4.1944407164737577e-03 -1.5309358013886230e-03 1.3279471195056462e-02  0.0000000000000000e+00 0.0000000000000000e+00 0.0000000000000000e+00  0.0000000000000000e+00 0.0000000000000000e+00 0.0000000000000000e+00  1.7171066220238375e-02 -2.9143556091541590e-03 2.6802611153329756e-02  1.2513118907267315e-02 -2.8304991610766149e-03 2.1204832526239871e-02  2.4970436810774578e-02 -3.9659301866516389e-03 3.0379966116630228e-02  2.2051694145355485e-02 -3.8534069660737663e-03 2.5266588262186664e-02  3.3829467647528241e-02 -4.6561818573997958e-03 3.2103981478636148e-02  3.2076141358706844e-02 -4.5359243924815518e-03 2.7196611020244194e-02  4.3498116882796360e-02 -5.0421034269226951e-03 3.2870065841805594e-02  4.2467494434075936e-02 -4.9332734544874496e-03 2.7981781973802182e-02  5.3712995052450301e-02 -5.2131510926556436e-03 3.3134615672876844e-02  5.3122615121378114e-02 -5.1256810497229922e-03 2.8180131957953842e-02  1.0138140066312999e-02 -3.2670260249101175e-03 1.9213234959150761e-02  4.2612569973116965e-03 -3.2012910767507136e-03 1.3103068319749476e-02  0.0000000000000000e+00 0.0000000000000000e+00 0.0000000000000000e+00  0.0000000000000000e+00 0.0000000000000000e+00 0.0000000000000000e+00  1.7372388968419167e-02 -6.1264733797631405e-03 2.6479024344854593e-02  1.2773575648867525e-02 -5.9491918825982067e-03 2.0875105642310269e-02  2.5389182136298937e-02 -8.2551570944937869e-03 2.9980354830321757e-02  2.2489153439050953e-02 -8.0296948306079405e-03 2.4867711216027221e-02  3.4376465088876193e-02 -9.6188943580563860e-03 3.1709370797538980e-02  3.2607581224955107e-02 -9.3882261925524596e-03 2.6805903072024673e-02  4.4073619304639024e-02 -1.0372930410457349e-02 3.2530632861021418e-02  4.3008578575491480e-02 -1.0169213895547348e-02 2.7646814770506293e-02  5.4249514070711595e-02 -1.0712971735688699e-02 3.2870771429455915e-02  5.3618142055563062e-02 -1.0551365236962340e-02 2.7920257464496945e-02  1.0206695868435938e-02 -5.1789578315425766e-03 1.8927856304617182e-02  4.4297845506195005e-03 -5.0942839007558161e-03 1.2802706930680998e-02  0.0000000000000000e+00 0.0000000000000000e+00 0.0000000000000000e+00  0.0000000000000000e+00 0.0000000000000000e+00 0.0000000000000000e+00  1.7852863471326589e-02 -9.5958424076643869e-03 2.5924601924859486e-02  1.3338174317134785e-02 -9.3701961586746835e-03 2.0326961118886228e-02  2.6216710521304091e-02 -1.2711079750092214e-02 2.9318773326316154e-02  2.3337623283237085e-02 -1.2430151021098085e-02 2.4224945537812567e-02  3.5353058822485246e-02 -1.4617721362814848e-02 3.1080892003116291e-02  3.3556014630016513e-02 -1.4338775570051854e-02 2.6197617020498120e-02  4.5036137494260463e-02 -1.5643994527172755e-02 3.2008203540992652e-02  4.3917577692548712e-02 -1.5403085355190499e-02 2.7141929900705936e-02  5.5108014038321558e-02 -1.6107160107181554e-02 3.2475876180090665e-02  5.4415300268232450e-02 -1.5919050908451287e-02 2.7539316150812444e-02  1.0549021158822341e-02 -7.4911748406748394e-03 1.8521772937300011e-02  4.8693792120878265e-03 -7.4694052063830549e-03 1.2397926044955784e-02  0.0000000000000000e+00 0.0000000000000000e+00 0.0000000000000000e+00  0.0000000000000000e+00 0.0000000000000000e+00 0.0000000000000000e+00  1.8900732011693230e-02 -1.3482833839014642e-02 2.5141952402416096e-02  1.4468300709165945e-02 -1.3313882811832961e-02 1.9602677883139068e-02  2.7626755092094595e-02 -1.7348282522083532e-02 2.8450299281397466e-02  2.4763435247515758e-02 -1.7127195527554991e-02 2.3421489975488704e-02  3.6793384686916931e-02 -1.9584261894811043e-02 3.0311480925847883e-02  3.4960288936779528e-02 -1.9362844902903069e-02 2.5483102139138514e-02  4.6325354487787886e-02 -2.0766176657871501e-02 3.1403474147435821e-02  4.5144861249101019e-02 -2.0575052655613973e-02 2.6580448655925289e-02  5.6182185411346973e-02 -2.1316386628474532e-02 3.2038310815867874e-02  5.5420685383206277e-02 -2.1167741006568097e-02 2.7134322510441882e-02  1.1894222622789810e-02 -1.0690945056906955e-02 1.8035929987033048e-02  6.2231052996884846e-03 -1.0924044371451731e-02 1.2035001064555307e-02  0.0000000000000000e+00 0.0000000000000000e+00 0.0000000000000000e+00  0.0000000000000000e+00 0.0000000000000000e+00 0.0000000000000000e+00  2.1029430107143893e-02 -1.7890504178792760e-02 2.4226098060204967e-02  1.6704020826241402e-02 -1.8009550843637555e-02 1.8876770582886355e-02  2.9758785782558708e-02 -2.2033009878319080e-02 2.7563265261328872e-02  2.6947802661665604e-02 -2.2053117017068392e-02 2.2694962547329681e-02  3.8615547188811300e-02 -2.4352470937272986e-02 2.9606183121151094e-02  3.6770123706623296e-02 -2.4319125100422067e-02 2.4903439199588439e-02  4.7769463744427469e-02 -2.5615510008094783e-02 3.0892067105736897e-02  4.6541462614242045e-02 -2.5566620148218130e-02 2.6163607739339800e-02  5.7281816515826776e-02 -2.6265542036975311e-02 3.1690434320373023e-02  5.6461744591565603e-02 -2.6219821600097580e-02 2.6854306958080797e-02  1.5871602589849251e-02 -1.6144699306934455e-02 1.7284991180046300e-02  1.0892708578334114e-02 -1.6869333584932068e-02 1.2163217415563150e-02  0.0000000000000000e+00 0.0000000000000000e+00 0.0000000000000000e+00  0.0000000000000000e+00 0.0000000000000000e+00 0.0000000000000000e+00  2.4549027181297582e-02 -2.2735959920954205e-02 2.3694750691291486e-02  2.0809472861271636e-02 -2.3390340789903354e-02 1.8710351868644361e-02  3.2379689297714495e-02 -2.6457309054666783e-02 2.7151919379430987e-02  2.9825897768504809e-02 -2.6848640086969178e-02 2.2623694630736439e-02  4.0480496207159697e-02 -2.8719504757686431e-02 2.9308320408178309e-02  3.8690478503247583e-02 -2.8959444437528393e-02 2.4898441160084894e-02  4.9052175258962716e-02 -3.0104219901988683e-02 3.0689376974207042e-02  4.7800617956132975e-02 -3.0255520148793517e-02 2.6183489277257228e-02  5.8142770988210017e-02 -3.0937119703306593e-02 3.1559862351704826e-02  5.7279609742470684e-02 -3.1031245495022636e-02 2.6879287344950521e-02  5.0688323248889982e-03 1.2324284670903357e-02 7.7120250832911673e-03  1.0664248124205642e-02 1.8398089404228272e-02 7.9859063783727247e-03  0.0000000000000000e+00 0.0000000000000000e+00 0.0000000000000000e+00  0.0000000000000000e+00 0.0000000000000000e+00 0.0000000000000000e+00  1.4600013657541887e-02 1.9476324081611294e-02 1.3899276609173733e-02  1.8971980139996861e-02 2.4968844874622805e-02 1.4145111017317176e-02  2.4930971616929240e-02 2.3314776409794118e-02 1.7709231505841142e-02  2.7773741859258547e-02 2.8294911559705250e-02 1.7989589977058216e-02  3.5164430446052601e-02 2.5415908321264800e-02 1.9937912527775544e-02  3.7002890973754539e-02 3.0200194619713346e-02 2.0189974457386822e-02  4.5367735972324220e-02 2.6540015524573267e-02 2.1168651371646516e-02  4.6562636758294189e-02 3.1333334056316026e-02 2.1370571943873498e-02  5.5650172181687815e-02 2.7110944486751203e-02 2.1798776072709070e-02  5.6427014818138221e-02 3.1997616597610148e-02 2.1948032264544025e-02  4.0174033941043265e-03 8.0993045578184875e-03 8.0993045578184875e-03  0.0000000000000000e+00 0.0000000000000000e+00 0.0000000000000000e+00  1.2273506784772712e-02 1.4395842009869044e-02 1.4395842009869042e-02  2.2533731705080485e-02 1.8195914974986700e-02 1.8195914974986693e-02  3.3205059468546648e-02 2.0316447531923448e-02 2.0316447531923448e-02  4.3886015341078798e-02 2.1438449465664314e-02 2.1438449465664297e-02  5.4559084133242841e-02 2.1979694310068416e-02 2.1979694310068430e-02  3.5252028035637592e-03 5.4385323712477038e-03 8.4699507680564314e-03  0.0000000000000000e+00 0.0000000000000000e+00 0.0000000000000000e+00  1.1153602813535305e-02 1.0043779498130340e-02 1.5001504888516884e-02  2.1022532994507563e-02 1.3209898753792455e-02 1.8851433728593329e-02  3.1685381222656232e-02 1.5119315612544475e-02 2.0898351068843510e-02  4.2559245192056498e-02 1.6162793254587641e-02 2.1895438005728664e-02  5.3477770034899043e-02 1.6666918690637082e-02 2.2310029164063470e-02  3.2885556946719075e-03 3.4191681387483672e-03 8.7616880571760002e-03  0.0000000000000000e+00 0.0000000000000000e+00 0.0000000000000000e+00  1.0549988662649655e-02 6.4024392219686269e-03 1.5482410582769284e-02  2.0111135799157142e-02 8.6129318777516881e-03 1.9408431488655641e-02  3.0656405387391748e-02 1.0029760519041532e-02 2.1424159260843356e-02  4.1570472788157703e-02 1.0840663338845076e-02 2.2332799908933262e-02  5.2610006216593189e-02 1.1246477409256364e-02 2.2640873264605628e-02  3.1712084475389668e-03 1.6885671349512505e-03 8.9389468370896039e-03  0.0000000000000000e+00 0.0000000000000000e+00 0.0000000000000000e+00  1.0236599471163869e-02 3.1781303116318257e-03 1.5781286663310887e-02  1.9618904096045383e-02 4.3266397492879721e-03 1.9765775803464926e-02  3.0063174680781832e-02 5.0926871417237849e-03 2.1774625414530735e-02  4.0965919599686824e-02 5.5482259623602578e-03 2.2633874178631185e-02  5.2052945449223384e-02 5.7865775983560047e-03 2.2875069798861794e-02  3.1240821539009257e-03 7.7250869283398540e-05 8.9986077355421988e-03  0.0000000000000000e+00 0.0000000000000000e+00 0.0000000000000000e+00  1.0123760799307178e-02 1.4266608233933371e-04 1.5883019626828889e-02  1.9449190760524142e-02 2.0568543093085165e-04 1.9890561847959742e-02  2.9856090150868313e-02 2.5253097597593890e-04 2.1900013199851982e-02  4.0748668728403117e-02 2.8896699264447328e-04 2.2743613003633950e-02  5.1846163653156731e-02 3.1839453799426090e-04 2.2961577403320114e-02  3.1309431656002334e-03 -1.5297586656973896e-03 8.9421660036522136e-03  0.0000000000000000e+00 0.0000000000000000e+00 0.0000000000000000e+00  1.0186356557222425e-02 -2.8820537389617940e-03 1.5786787112577080e-02  1.9574409796708662e-02 -3.9033152047673416e-03 1.9777003028188841e-02  3.0017394610774035e-02 -4.5799598258906074e-03 2.1788323516006680e-02  4.0916186670204836e-02 -4.9670379347533447e-03 2.2646337905081099e-02  5.1999526041613030e-02 -5.1492482903878123e-03 2.2884655291801229e-02  3.1959286971804325e-03 -3.2455026300675250e-03 8.7713957677040943e-03  0.0000000000000000e+00 0.0000000000000000e+00 0.0000000000000000e+00  1.0450730013594428e-02 -6.0669109911032507e-03 1.5498821627851388e-02  2.0025797447045322e-02 -8.1512343580927328e-03 1.9436310033877961e-02  3.0564867456588679e-02 -9.4952638971288871e-03 2.1454268869834477e-02  4.1469542913361364e-02 -1.0251525441925710e-02 2.2358002083438411e-02  5.2501759515195000e-02 -1.0608766085615264e-02 2.2659218508951948e-02  3.3584916852422444e-03 -5.2264735557107679e-03 8.4967551201273108e-03  0.0000000000000000e+00 0.0000000000000000e+00 0.0000000000000000e+00  1.1020971697415439e-02 -9.6122562068306112e-03 1.5043579584863190e-02  2.0902060681753067e-02 -1.2681234347209591e-02 1.8907551545449076e-02  3.1545750356684152e-02 -1.4555987758153017e-02 2.0948251688297528e-02  4.2403117517419688e-02 -1.5568080769192914e-02 2.1932358182623273e-02  5.3312343199397108e-02 -1.6033160317631707e-02 2.2334319461452760e-02  3.7767719509767712e-03 -7.7548368047570407e-03 8.1664225472720085e-03  0.0000000000000000e+00 0.0000000000000000e+00 0.0000000000000000e+00  1.2160446628106215e-02 -1.3771462296588589e-02 1.4499714279179907e-02  2.2380660598627679e-02 -1.7591897166670433e-02 1.8293618038834284e-02  3.3006057563670088e-02 -1.9748911503360684e-02 2.0386002242913596e-02  4.3668815953263551e-02 -2.0859010452154329e-02 2.1480120759278916e-02  5.4336611992245550e-02 -2.1359957840017103e-02 2.2002661713615024e-02  5.0689172563202793e-03 -1.1433502518226422e-02 7.9362149089233190e-03  0.0000000000000000e+00 0.0000000000000000e+00 0.0000000000000000e+00  1.4428566293343189e-02 -1.8795343699478245e-02 1.4077743485057281e-02  2.4653721656708628e-02 -2.2809278618845165e-02 1.7838645056210529e-02  3.4886306948595382e-02 -2.4905206368667145e-02 2.0003130618772423e-02  4.5100759965767068e-02 -2.5978222734423569e-02 2.1196898417455708e-02  5.5386207695351693e-02 -2.6491644793870547e-02 2.1810036748633653e-02  9.5084045131109997e-03 -1.7724828771611235e-02 8.0877483018042765e-03  0.0000000000000000e+00 0.0000000000000000e+00 0.0000000000000000e+00  1.8505619541024847e-02 -2.4464366585851965e-02 1.4270915753276986e-02  2.7511377797856722e-02 -2.7773730825854989e-02 1.8082930228012908e-02  3.6766119824539659e-02 -2.9634442641216251e-02 2.0231012721793968e-02  4.6307216102860344e-02 -3.0726468378406206e-02 2.1384861282815457e-02  5.6148411371235718e-02 -3.1347412856558149e-02 2.1953032400205418e-02  4.5731954478611123e-03 1.2772790956482399e-02 5.2499263880735857e-03  1.0333640376336675e-02 1.8870483871730067e-02 5.5269009424857045e-03  0.0000000000000000e+00 0.0000000000000000e+00 0.0000000000000000e+00  0.0000000000000000e+00 0.0000000000000000e+00 0.0000000000000000e+00  1.3465083044576030e-02 2.0267214479552317e-02 9.8024820381864292e-03  1.7947878096808940e-02 2.5838104020510975e-02 1.0108459846410411e-02  2.3463167629115652e-02 2.4160724836604874e-02 1.2947684169957775e-02  2.6318431049301011e-02 2.9219997506771553e-02 1.3288483719610288e-02  3.3698771072867888e-02 2.6144844890285433e-02 1.4900805519792020e-02  3.5488589228957285e-02 3.0994625612051303e-0