<?xml version="1.0"?>
<VTKFile type="UnstructuredGrid"  version="0.1"  >
<UnstructuredGrid>
<Piece  NumberOfPoints="625" NumberOfCells="2522">
<Points>
<DataArray  type="Float64"  NumberOfComponents="3"  format="ascii">0 0 0.3333333333333333  0 0 0.4166666666666667  0.08333333333333333 0 0.4166666666666667  0.08333333333333333 0.08333333333333333 0.4166666666666667  0 0.08333333333333333 0.4166666666666667  0.08333333333333333 0.08333333333333333 0.5  0.08333333333333333 0 0.5  0 0 0.5  0 0.08333333333333333 0.5  0.1666666666666667 0 0.4166666666666667  0.1666666666666667 0.08333333333333333 0.4166666666666667  0.1666666666666667 0.08333333333333333 0.5  0.1666666666666667 0 0.5  0.25 0 0.4166666666666667  0.25 0.08333333333333333 0.4166666666666667  0.25 0.08333333333333333 0.5  0.25 0 0.5  0.3333333333333333 0 0.4166666666666667  0.3333333333333333 0.08333333333333333 0.4166666666666667  0.3333333333333333 0.08333333333333333 0.5  0.3333333333333333 0 0.5  0.4166666666666667 0 0.4166666666666667  0.4166666666666667 0.08333333333333333 0.4166666666666667  0.4166666666666667 0.08333333333333333 0.5  0.4166666666666667 0 0.5  0.5 0 0.4166666666666667  0.5 0.08333333333333333 0.4166666666666667  0.5 0.08333333333333333 0.5  0.5 0 0.5  0.08333333333333333 0.1666666666666667 0.4166666666666667  0.08333333333333333 0.1666666666666667 0.5  0 0.1666666666666667 0.4166666666666667  0 0.1666666666666667 0.5  0.1666666666666667 0.1666666666666667 0.4166666666666667  0.1666666666666667 0.1666666666666667 0.5  0.25 0.1666666666666667 0.4166666666666667  0.25 0.1666666666666667 0.5  0.3333333333333333 0.1666666666666667 0.4166666666666667  0.3333333333333333 0.1666666666666667 0.5  0.4166666666666667 0.1666666666666667 0.4166666666666667  0.4166666666666667 0.1666666666666667 0.5  0.5 0.1666666666666667 0.4166666666666667  0.5 0.1666666666666667 0.5  0.08333333333333333 0.25 0.4166666666666667  0.08333333333333333 0.25 0.5  0 0.25 0.4166666666666667  0 0.25 0.5  0.1666666666666667 0.25 0.4166666666666667  0.1666666666666667 0.25 0.5  0.25 0.25 0.4166666666666667  0.25 0.25 0.5  0.3333333333333333 0.25 0.4166666666666667  0.3333333333333333 0.25 0.5  0.4166666666666667 0.25 0.4166666666666667  0.4166666666666667 0.25 0.5  0.5 0.25 0.4166666666666667  0.5 0.25 0.5  0.08333333333333333 0.3333333333333333 0.4166666666666667  0.08333333333333333 0.3333333333333333 0.5  0 0.3333333333333333 0.4166666666666667  0 0.3333333333333333 0.5  0.1666666666666667 0.3333333333333333 0.4166666666666667  0.1666666666666667 0.3333333333333333 0.5  0.25 0.3333333333333333 0.5  0.3333333333333333 0.3333333333333333 0.5  0.4166666666666667 0.3333333333333333 0.5  0.5 0.3333333333333333 0.5  0.08333333333333333 0.4166666666666667 0.4166666666666667  0.08333333333333333 0.4166666666666667 0.5  0 0.4166666666666667 0.4166666666666667  0 0.4166666666666667 0.5  0.1666666666666667 0.4166666666666667 0.5  0.25 0.4166666666666667 0.5  0.08333333333333333 0.5 0.5  0 0.5 0.5  0 0.5 0.4166666666666667  0.1666666666666667 0.5 0.5  0.08333333333333333 0.5833333333333334 0.5  0 0.5833333333333334 0.5  0.08333333333333333 0.08333333333333333 0.5833333333333334  0.08333333333333333 0 0.5833333333333334  0 0 0.5833333333333334  0 0.08333333333333333 0.5833333333333334  0.1666666666666667 0.08333333333333333 0.5833333333333334  0.1666666666666667 0 0.5833333333333334  0.25 0.08333333333333333 0.5833333333333334  0.25 0 0.5833333333333334  0.3333333333333333 0.08333333333333333 0.5833333333333334  0.3333333333333333 0 0.5833333333333334  0.4166666666666667 0.08333333333333333 0.5833333333333334  0.4166666666666667 0 0.5833333333333334  0.5 0.08333333333333333 0.5833333333333334  0.5 0 0.5833333333333334  0.08333333333333333 0.1666666666666667 0.5833333333333334  0 0.1666666666666667 0.5833333333333334  0.1666666666666667 0.1666666666666667 0.5833333333333334  0.25 0.1666666666666667 0.5833333333333334  0.3333333333333333 0.1666666666666667 0.5833333333333334  0.4166666666666667 0.1666666666666667 0.5833333333333334  0.5 0.1666666666666667 0.5833333333333334  0.08333333333333333 0.25 0.5833333333333334  0 0.25 0.5833333333333334  0.1666666666666667 0.25 0.5833333333333334  0.25 0.25 0.5833333333333334  0.3333333333333333 0.25 0.5833333333333334  0.4166666666666667 0.25 0.5833333333333334  0.5 0.25 0.5833333333333334  0.08333333333333333 0.3333333333333333 0.5833333333333334  0 0.3333333333333333 0.5833333333333334  0.1666666666666667 0.3333333333333333 0.5833333333333334  0.25 0.3333333333333333 0.5833333333333334  0.3333333333333333 0.3333333333333333 0.5833333333333334  0.4166666666666667 0.3333333333333333 0.5833333333333334  0.5 0.3333333333333333 0.5833333333333334  0.08333333333333333 0.4166666666666667 0.5833333333333334  0 0.4166666666666667 0.5833333333333334  0.1666666666666667 0.4166666666666667 0.5833333333333334  0.25 0.4166666666666667 0.5833333333333334  0.3333333333333333 0.4166666666666667 0.5833333333333334  0.4166666666666667 0.4166666666666667 0.5833333333333334  0.5 0.4166666666666667 0.5833333333333334  0.08333333333333333 0.5 0.5833333333333334  0 0.5 0.5833333333333334  0.1666666666666667 0.5 0.5833333333333334  0.25 0.5 0.5833333333333334  0.3333333333333333 0.5 0.5833333333333334  0.08333333333333333 0.5833333333333334 0.5833333333333334  0 0.5833333333333334 0.5833333333333334  0.1666666666666667 0.5833333333333334 0.5833333333333334  0.25 0.5833333333333334 0.5833333333333334  0.08333333333333333 0.6666666666666666 0.5833333333333334  0 0.6666666666666666 0.5833333333333334  0.1666666666666667 0.6666666666666666 0.5833333333333334  0.08333333333333333 0.08333333333333333 0.6666666666666666  0.08333333333333333 0 0.6666666666666666  0 0 0.6666666666666666  0 0.08333333333333333 0.6666666666666666  0.1666666666666667 0.08333333333333333 0.6666666666666666  0.1666666666666667 0 0.6666666666666666  0.25 0.08333333333333333 0.6666666666666666  0.25 0 0.6666666666666666  0.3333333333333333 0.08333333333333333 0.6666666666666666  0.3333333333333333 0 0.6666666666666666  0.4166666666666667 0.08333333333333333 0.6666666666666666  0.4166666666666667 0 0.6666666666666666  0.5 0.08333333333333333 0.6666666666666666  0.5 0 0.6666666666666666  0.08333333333333333 0.1666666666666667 0.6666666666666666  0 0.1666666666666667 0.6666666666666666  0.1666666666666667 0.1666666666666667 0.6666666666666666  0.25 0.1666666666666667 0.6666666666666666  0.3333333333333333 0.1666666666666667 0.6666666666666666  0.4166666666666667 0.1666666666666667 0.6666666666666666  0.5 0.1666666666666667 0.6666666666666666  0.08333333333333333 0.25 0.6666666666666666  0 0.25 0.6666666666666666  0.1666666666666667 0.25 0.6666666666666666  0.25 0.25 0.6666666666666666  0.3333333333333333 0.25 0.6666666666666666  0.4166666666666667 0.25 0.6666666666666666  0.5 0.25 0.6666666666666666  0.08333333333333333 0.3333333333333333 0.6666666666666666  0 0.3333333333333333 0.6666666666666666  0.1666666666666667 0.3333333333333333 0.6666666666666666  0.25 0.3333333333333333 0.6666666666666666  0.3333333333333333 0.3333333333333333 0.6666666666666666  0.4166666666666667 0.3333333333333333 0.6666666666666666  0.5 0.3333333333333333 0.6666666666666666  0.08333333333333333 0.4166666666666667 0.6666666666666666  0 0.4166666666666667 0.6666666666666666  0.1666666666666667 0.4166666666666667 0.6666666666666666  0.25 0.4166666666666667 0.6666666666666666  0.3333333333333333 0.4166666666666667 0.6666666666666666  0.4166666666666667 0.4166666666666667 0.6666666666666666  0.5 0.4166666666666667 0.6666666666666666  0.08333333333333333 0.5 0.6666666666666666  0 0.5 0.6666666666666666  0.1666666666666667 0.5 0.6666666666666666  0.25 0.5 0.6666666666666666  0.3333333333333333 0.5 0.6666666666666666  0.4166666666666667 0.5 0.5833333333333334  0.4166666666666667 0.5 0.6666666666666666  0.5 0.5 0.5833333333333334  0.5 0.5 0.6666666666666666  0.08333333333333333 0.5833333333333334 0.6666666666666666  0 0.5833333333333334 0.6666666666666666  0.1666666666666667 0.5833333333333334 0.6666666666666666  0.25 0.5833333333333334 0.6666666666666666  0.3333333333333333 0.5833333333333334 0.5833333333333334  0.3333333333333333 0.5833333333333334 0.6666666666666666  0.4166666666666667 0.5833333333333334 0.5833333333333334  0.4166666666666667 0.5833333333333334 0.6666666666666666  0.5 0.5833333333333334 0.5833333333333334  0.5 0.5833333333333334 0.6666666666666666  0.08333333333333333 0.6666666666666666 0.6666666666666666  0 0.6666666666666666 0.6666666666666666  0.1666666666666667 0.6666666666666666 0.6666666666666666  0.25 0.6666666666666666 0.5833333333333334  0.25 0.6666666666666666 0.6666666666666666  0.3333333333333333 0.6666666666666666 0.5833333333333334  0.3333333333333333 0.6666666666666666 0.6666666666666666  0.4166666666666667 0.6666666666666666 0.5833333333333334  0.4166666666666667 0.6666666666666666 0.6666666666666666  0.5 0.6666666666666666 0.5833333333333334  0.5 0.6666666666666666 0.6666666666666666  0.08333333333333333 0.75 0.5833333333333334  0.08333333333333333 0.75 0.6666666666666666  0 0.75 0.5833333333333334  0 0.75 0.6666666666666666  0.1666666666666667 0.75 0.5833333333333334  0.1666666666666667 0.75 0.6666666666666666  0.25 0.75 0.5833333333333334  0.25 0.75 0.6666666666666666  0.3333333333333333 0.75 0.5833333333333334  0.3333333333333333 0.75 0.6666666666666666  0.4166666666666667 0.75 0.5833333333333334  0.4166666666666667 0.75 0.6666666666666666  0.5 0.75 0.5833333333333334  0.5 0.75 0.6666666666666666  0.08333333333333333 0.8333333333333334 0.5833333333333334  0.08333333333333333 0.8333333333333334 0.6666666666666666  0 0.8333333333333334 0.5833333333333334  0 0.8333333333333334 0.6666666666666666  0.1666666666666667 0.8333333333333334 0.5833333333333334  0.1666666666666667 0.8333333333333334 0.6666666666666666  0.25 0.8333333333333334 0.5833333333333334  0.25 0.8333333333333334 0.6666666666666666  0.3333333333333333 0.8333333333333334 0.5833333333333334  0.3333333333333333 0.833333333333
[...]
<PointData  Vectors="f_18"> 
<DataArray  type="Float64"  Name="f_18"  NumberOfComponents="3" format="ascii">0.0000000000000000e+00 0.0000000000000000e+00 0.0000000000000000e+00  0.0000000000000000e+00 0.0000000000000000e+00 0.0000000000000000e+00  9.5795760419983868e-03 2.0611682687108782e-02 1.8719178437468012e-03  4.5586841873183747e-03 1.4281669397792678e-02 1.7266642208726586e-03  0.0000000000000000e+00 0.0000000000000000e+00 0.0000000000000000e+00  4.5114550148339727e-03 1.4362900779455410e-02 2.7192203228684525e-05  9.5548150401184515e-03 2.0698404527016025e-02 7.2560518557035958e-05  0.0000000000000000e+00 0.0000000000000000e+00 0.0000000000000000e+00  0.0000000000000000e+00 0.0000000000000000e+00 0.0000000000000000e+00  1.7520617649911866e-02 2.7972549473704672e-02 3.4338822575843532e-03  1.3575724125439720e-02 2.2212465579197118e-02 3.2651286099081448e-03  1.3465788216639374e-02 2.2357523104298522e-02 8.8038381286841333e-05  1.7435224570046589e-02 2.8123737413578796e-02 1.1122061082083248e-04  2.6593561920502683e-02 3.1351787496315349e-02 4.5662291906227413e-03  2.4192044832373878e-02 2.6060270994070357e-02 4.3775313240858931e-03  2.4030745969083125e-02 2.6229190209751702e-02 1.0920320604443419e-04  2.6442980821951484e-02 3.1530195543901310e-02 1.3191998868371160e-04  3.6915417178646992e-02 3.2870581183689358e-02 5.2701135205640588e-03  3.5530502326209634e-02 2.7755477414314299e-02 5.0956051184431039e-03  3.5343240113130982e-02 2.7912910457040536e-02 1.2533717950868618e-04  3.6724213608485788e-02 3.3037921591238098e-02 1.4284776006901544e-04  4.8130953528692712e-02 3.3478876574574941e-02 5.6440147591714012e-03  4.7352548396297080e-02 2.8368889133183663e-02 5.5004723213244455e-03  4.7166118841443561e-02 2.8496964271942267e-02 1.3417543629923195e-04  4.7932301887681800e-02 3.3615081191572381e-02 1.4747872029000533e-04  5.9910891248894024e-02 3.3646022915987457e-02 5.8045904667860708e-03  5.9486455424467510e-02 2.8472461906352959e-02 5.6964824165069436e-03  5.9318972067512486e-02 2.8567206421412621e-02 1.3870826354881811e-04  5.9728887951948577e-02 3.3746670105413192e-02 1.4872959031384645e-04  3.5462286729643429e-03 9.7196609123445053e-03 1.7717322566403405e-03  3.4941072839174301e-03 9.7951544381563310e-03 4.0340789285481323e-05  0.0000000000000000e+00 0.0000000000000000e+00 0.0000000000000000e+00  0.0000000000000000e+00 0.0000000000000000e+00 0.0000000000000000e+00  1.1429809738486682e-02 1.6658008405896495e-02 3.2998842525023358e-03  1.1314939683730551e-02 1.6781733425453950e-02 7.5320136724575933e-05  2.1964390487684941e-02 2.0455943972159763e-02 4.4236520867473031e-03  2.1798511636513571e-02 2.0600029928201161e-02 1.0595243480944946e-04  3.3741051979022600e-02 2.2228944663255666e-02 5.1316624950411421e-03  3.3548538388631796e-02 2.2364946502530778e-02 1.2258727967670151e-04  4.6058706358927066e-02 2.2904123197687462e-02 5.5239762426512618e-03  4.5868930516471257e-02 2.3015812149245488e-02 1.3165398614553540e-04  5.8594714497469925e-02 2.3037229117224205e-02 5.7096049098116306e-03  5.8426365133247470e-02 2.3120268770934455e-02 1.3642741098718577e-04  3.0825433227772564e-03 6.5841895701037254e-03 1.8479446966531408e-03  3.0309406167914293e-03 6.6470549858951436e-03 3.2183230198180328e-05  0.0000000000000000e+00 0.0000000000000000e+00 0.0000000000000000e+00  0.0000000000000000e+00 0.0000000000000000e+00 0.0000000000000000e+00  1.0293292825867349e-02 1.1713692694207864e-02 3.4254797665597401e-03  1.0177701561706347e-02 1.1811347697226785e-02 7.3126988628815861e-05  2.0431280323970596e-02 1.4895938469726209e-02 4.5614026684166259e-03  2.0260834661251861e-02 1.5007713914147486e-02 1.0660467259324767e-04  3.2227120667992694e-02 1.6548135682916285e-02 5.2577589771263351e-03  3.2026791355774333e-02 1.6654177044672671e-02 1.2644727134745589e-04  4.4786809305831773e-02 1.7241673618373886e-02 5.6233650971227456e-03  4.4588420257022129e-02 1.7329603924904426e-02 1.3483467355826474e-04  5.7617705995798116e-02 1.7418576973144109e-02 5.7804060050495078e-03  5.7442220901444033e-02 1.7484493732404432e-02 1.3825604792765239e-04  2.8489830466856729e-03 4.1133127785560174e-03 1.9318107548672362e-03  2.7991619125762000e-03 4.1573363130223357e-03 2.9343178994832296e-05  0.0000000000000000e+00 0.0000000000000000e+00 0.0000000000000000e+00  0.0000000000000000e+00 0.0000000000000000e+00 0.0000000000000000e+00  9.6566023054027849e-03 7.4476642938876752e-03 3.5536917365574230e-03  9.5399180453336358e-03 7.5145658734342676e-03 7.1681119795904269e-05  1.9284120177455844e-02 9.7660830518011051e-03 1.0893213030474969e-04  3.0944609984732630e-02 1.1017777893412888e-02 1.3036903965870085e-04  4.3590220973598971e-02 1.1578247885306724e-02 1.3885316991918976e-04  5.6617481185759787e-02 1.1737971222712943e-02 1.4106897054198825e-04  2.7290031968165616e-03 1.9918790339978347e-03 1.9918790339978477e-03  2.6804554652800580e-03 2.0145014330009395e-03 2.9228035850641200e-05  0.0000000000000000e+00 0.0000000000000000e+00 0.0000000000000000e+00  0.0000000000000000e+00 0.0000000000000000e+00 0.0000000000000000e+00  9.2023969926999082e-03 3.6795322902816799e-03 7.2512408799045518e-05  1.8745007237331277e-02 4.8469287113690864e-03 1.1133413538884227e-04  2.6324316158082336e-03 3.0088018398500507e-05 3.0088018398508154e-05  0.0000000000000000e+00 0.0000000000000000e+00 0.0000000000000000e+00  0.0000000000000000e+00 0.0000000000000000e+00 0.0000000000000000e+00  9.0839941242823567e-03 7.4089968282504607e-05 7.4089968282502614e-05  2.6413756975501943e-03 -1.9482519783809678e-03 3.1126795953112007e-05  0.0000000000000000e+00 0.0000000000000000e+00 0.0000000000000000e+00  4.5265389275436704e-03 1.4290009847600618e-02 -1.6691289415887880e-03  9.5469544923587526e-03 2.0621788678310209e-02 -1.7167371650835795e-03  0.0000000000000000e+00 0.0000000000000000e+00 0.0000000000000000e+00  0.0000000000000000e+00 0.0000000000000000e+00 0.0000000000000000e+00  1.3546144450383267e-02 2.2225725564835024e-02 -3.0821490552216278e-03  1.7496398249998733e-02 2.7991192126915351e-02 -3.2019421445792316e-03  2.4170491574450219e-02 2.6077541950188403e-02 -4.1533374133664921e-03  2.6579870390069055e-02 3.1379584744306237e-02 -4.2957256266219577e-03  3.5511803875660421e-02 2.7771810765590817e-02 -4.8427792711566147e-03  3.6901381668003788e-02 3.2898340548672925e-02 -4.9820233545200448e-03  4.7333321847819590e-02 2.8381554252070718e-02 -5.2326492059766990e-03  4.8112428471135192e-02 3.3501068332884604e-02 -5.3498813993774798e-03  5.9466080835173483e-02 2.8481382304779881e-02 -5.4206326709057484e-03  5.9888927674698174e-02 3.3661846292160971e-02 -5.5093758728039519e-03  3.5057992106723602e-03 9.7231789656404121e-03 -1.6888023179882402e-03  0.0000000000000000e+00 0.0000000000000000e+00 0.0000000000000000e+00  1.1394351099782514e-02 1.6664857039292855e-02 -3.1403690654280493e-03  2.1942955833696244e-02 2.0469147711840344e-02 -4.2032592732920114e-03  3.3722139671518103e-02 2.2243243391641541e-02 -4.8827207316525919e-03  4.6039557570538438e-02 2.2915763165074564e-02 -5.2603146761872341e-03  5.8575176132311703e-02 2.3045383231851534e-02 -5.4377863066986222e-03  3.0404824219513065e-03 6.5888088131293579e-03 -1.7796552171031545e-03  0.0000000000000000e+00 0.0000000000000000e+00 0.0000000000000000e+00  1.0256185179817719e-02 1.1721037655034216e-02 -3.2674746490609918e-03  2.0409836283385118e-02 1.4907946560328246e-02 -4.3369902134650943e-03  3.2208734590268039e-02 1.6561252241918567e-02 -4.9998484686757765e-03  4.4767648945853507e-02 1.7252567780409421e-02 -5.3531546094281353e-03  5.7598079446811966e-02 1.7426280578205475e-02 -5.5052130597534246e-03  2.8082584936265625e-03 4.1186470461656256e-03 -1.8675436975009222e-03  0.0000000000000000e+00 0.0000000000000000e+00 0.0000000000000000e+00  9.6185421952281729e-03 7.4551919694658244e-03 -3.3969908658602922e-03  1.9436937403399877e-02 9.7007533826041423e-03 -4.4753002793916389e-03  3.1133595453678036e-02 1.0956639016598839e-02 -5.1260601891151628e-03  4.3777530351586914e-02 1.1527072579539320e-02 -5.4558109811735020e-03  5.6780597240436700e-02 1.1698829778872686e-02 -5.5818588709381049e-03  2.6895422669512034e-03 1.9960070236533143e-03 -1.9272031702313676e-03  0.0000000000000000e+00 0.0000000000000000e+00 0.0000000000000000e+00  9.2813315027645039e-03 3.6512348907131701e-03 -3.4865739730764733e-03  1.8900002962145866e-02 4.8157858666402018e-03 -4.5730652215953925e-03  3.0501480356881602e-02 5.4977623963764037e-03 -5.2168009221747929e-03  4.3162148029088292e-02 5.8219485572246757e-03 -5.5312509377034901e-03  5.6249238512602003e-02 5.9281715531906854e-03 -5.6392616840936502e-03  2.6413756975501843e-03 3.1126795953124747e-05 -1.9482519783809720e-03  0.0000000000000000e+00 0.0000000000000000e+00 0.0000000000000000e+00  9.1628100517397483e-03 7.5828567870006491e-05 -3.5182770698543469e-03  1.8720556760218582e-02 1.1583978812469314e-04 -4.6077360865460883e-03  3.0287220293293799e-02 1.3875050390847504e-04 -5.2492390641255930e-03  2.6499348171622229e-03 -1.9281133828838307e-03 -1.9281133828838227e-03  0.0000000000000000e+00 0.0000000000000000e+00 0.0000000000000000e+00  9.2409808375614310e-03 -3.4870276362002892e-03 -3.4870276362002806e-03  1.8874321065536218e-02 -4.5726434382279560e-03 -4.5726434382279578e-03  2.7206226824286889e-03 -4.0310073169350135e-03 -1.8697863709181699e-03  0.0000000000000000e+00 0.0000000000000000e+00 0.0000000000000000e+00  9.5423340016175598e-03 -7.2478353089160692e-03 -3.3978891369896157e-03  4.6120157917203973e-03 1.4058818374094860e-02 -3.4608447112863499e-03  9.5664502727573365e-03 2.0379407932583873e-02 -3.5861196333052342e-03  0.0000000000000000e+00 0.0000000000000000e+00 0.0000000000000000e+00  0.0000000000000000e+00 0.0000000000000000e+00 0.0000000000000000e+00  1.3844595102233194e-02 2.1818497730766953e-02 -6.3861799669256746e-03  1.7737278510198573e-02 2.7574067731601613e-02 -6.6289999569220407e-03  2.4636628829220925e-02 2.5615675531029270e-02 -8.5195241052893975e-03  2.7034168753804825e-02 3.0907740335502979e-02 -8.7992205879994737e-03  3.6046340525328555e-02 2.7348682639431569e-02 -9.8590728331664716e-03  3.7458242778365805e-02 3.2466354758947935e-02 -1.0123038431683985e-02  4.7849544854577993e-02 2.8041271774633735e-02 -1.0601509465717012e-02  4.8665387392957414e-02 3.3153799772931453e-02 -1.0818801274028959e-02  5.9914213725560689e-02 2.8232111876188768e-02 -1.0955837865385443e-02  6.0375131277396209e-02 3.3407294917546695e-02 -1.1118215764503149e-02  3.5876702040089701e-03 9.5048753116170805e-03 -3.5377717598091933e-03  0.0000000000000000e+00 0.0000000000000000e+00 0.0000000000000000e+00  1.1695601629988070e-02 1.6314910947361070e-02 -6.5199615848118555e-03  2.2424546877210027e-02 2.0077464881950727e-02 -8.6444040162521139e-03  3.4273383701914226e-02 2.1881878358420977e-02 -9.9596072501774800e-03  4.6567036723080192e-02 2.2622546149109295e-02 -1.0671892525563435e-02  5.9028273724255148e-02 2.2828992068711858e-02 -1.1000137842002067e-02  3.1169858318599720e-03 6.4148011574929418e-03 -3.7265369562153533e-03  0.0000000000000000e+00 0.0000000000000000e+00 0.0000000000000000e+00  1.0556439797700240e-02 1.1453627551478461e-02 -6.7924541882736058e-03  2.0906122597044555e-02 1.4611587525137755e-02 -8.9311129306353515e-03  3.2785249682422649e-02 1.6285904353845124e-02 -1.0211660332743806e-02  4.5321050186368589e-02 1.7026548993212234e-02 -1.0869668510655447e-02  5.8071965127434975e-02 1.7257688115476850e-02 -1.1141893651902234e-02  2.8817536899638221e-03 4.0027988413117600e-03 -3.9055826582760121e-03  0.0000000000000000e+00 0.0000000000000000e+00 0.0000000000000000e+00  9.9196237177633095e-03 7.2792559822690023e-03 -7.0594072585650394e-03  1.9945147117324886e-02 9.5062973858045172e-03 -9.2194117947810728e-03  3.1731597551836160e-02 1.0774604437400703e-02 -1.0474894585754652e-02  4.4355205867839156e-02 1.1375943431957886e-02 -1.1082942583029711e-02  5.7275907972458379e-02 1.1584816376084913e-02 -1.1299650569367114e-02  2.7615035062268805e-03 1.9395442999550290e-03 -4.0262792099777546e-03  0.0000000000000000e+00 0.0000000000000000e+00 0.0000000000000000e+00  9.5834570487058467e-03 3.5657473007597732e-03 -7.2425212915453062e-03  1.9415507598513741e-02 4.7211605918141431e-03 -9.4209325913303162e-03  3.1112813411052917e-02 5.4084997081123446e-03 -1.0662669822451863e-02  4.3755633236855114e-02 5.7470106497516686e-03 -1.1238559763919607e-02  5.6759267637156968e-02 5.8709844313008476e-03 -1.1417140476352816e-02  2.7124914558840064e-03 3.2194619350048851e-05 -4.0697050475329930e-03  0.0000000000000000e+00 0.0000000000000000e+00 0.0000000000000000e+00  9.4651050964744913e-03 7.7754166524931432e-05 -7.3084517383735972e-03  1.9238096903398384e-02 1.1790399067808041e-04 -9.4937379579731473e-03  3.0902548456156004e-02 1.4017766977951357e-04 -1.0731276057521978e-02  4.2948014848870765e-02 1.4599620243557239e-04 -5.5586609616554783e-03  4.3546616311176151e-02 1.4656046871567468e-04 -1.1296358680733322e-02  5.6059691928767676e-02 1.4562396773464532e-04 -5.6606302441539070e-03  5.6574840127156627e-02 1.4554193700379384e-04 -1.1461614283695644e-02  2.7206226824286863e-03 -1.8697863709181695e-03 -4.0310073169350152e-03  0.0000000000000000e+00 0.0000000000000000e+00 0.0000000000000000e+00  9.5423340016175598e-03 -3.3978891369896083e-03 -7.2478353089160692e-03  1.9388563382232774e-02 -4.4740439987048441e-03 -9.4255556992597390e-03  3.0479141169164857e-02 -5.2161652150396424e-03 -5.2161652150396493e-03  3.1089067277550890e-02 -5.1242554788421962e-03 -1.0667254038108104e-02  4.3139507487241664e-02 -5.5313235844794877e-03 -5.5313235844794964e-03  4.3732219535042208e-02 -5.4554755098520629e-03 -1.1243516857990410e-02  5.6227356695209889e-02 -5.6403031202723452e-03 -5.6403031202723513e-03  5.6737438292580336e-02 -5.5834410054712916e-03 -1.1422156146618201e-02  2.7916412830019614e-03 -3.9143579603117167e-03 -3.9143579603117149e-03  0.0000000000000000e+00 0.0000000000000000e+00 0.0000000000000000e+00  9.8420633393724380e-03 -7.0688847893159790e-03 -7.0688847893159747e-03  1.9388563382232771e-02 -9.4255556992597356e-03 -4.4740439987048467e-03  1.9894372616339494e-02 -9.2275373421597754e-03 -9.2275373421597823e-03  3.1089067277550900e-02 -1.0667254038108101e-02 -5.1242554788421997e-03  3.1684615679594783e-02 -1.0483088480107506e-02 -1.0483088480107511e-02  4.3732219535042215e-02 -1.1243516857990399e-02 -5.4554755098520724e-03  4.4308840757453970e-02 -1.1091973813889624e-02 -1.1091973813889627e-02  5.6737438292580329e-02 -1.1422156146618198e-02 -5.5834410054712898e-03  5.7233257689173977e-02 -1.1308799647413314e-02 -1.1308799647413329e-02  2.8920538890780112e-03 -6.4526526365563186e-03 -1.7844986715919949e-03  2.9654192749842840e-03 -6.2802200802312171e-03 -3.7383339159813532e-03  0.0000000000000000e+00 0.0000000000000000e+00 0.0000000000000000e+00  0.0000000000000000e+00 0.0000000000000000e+00 0.0000000000000000e+00  1.0161644809953107e-02 -1.1424627139592138e-02 -3.2694465329987628e-03  1.0460105053112205e-02 -1.1155418795679205e-02 -6.8042948584303925e-03  2.0343640498714063e-02 -1.4593326368591860e-02 -4.3342334589164637e-03  2.0836559279622947e-02 -1.4294102169661666e-02 -8.9404871370660430e-03  3.2141737966772568e-02 -1.6275364631898985e-02 -4.9962322034012687e-03  3.2715486393625703e-02 -1.5998425252783870e-02 -1.0221556864294453e-02  4.4699865631610089e-02 -1.6989798830960592e-02 -5.3514983323769945e-03  4.5252854279599145e-02 -1.6763720396351278e-02 -1.0880834798325854e-02  5.7535260478250118e-02 -1.7170591967270023e-02 -5.5064626707989383e-03  5.8010772731475313e-02 -1.7002766716826229e-02 -1.1153451089917778e-02  3.3112431587401128e-03 -9.4482402710858986e-03 -1.6989119413991542e-03  3.3909920081781320e-03 -9.2343686345023237e-03 -3.5528595307322045e-03  0.0000000000000000e+00 0.0000000000000000e+00 0.0000000000000000e+00  0.0000000000000000e+00 0.0000000000000000e+00 0.0000000000000000e+00  1.1322851359695948e-02 -1.6241829919615987e-02 -3.1434026454097070e-03  1.1621016344199844e-02 -1.5892176162994532e-02 -6.5321518943625353e-03  2.1864782525325213e-02 -2.0143564137820785e-02 -4.2002105474590453e-03  2.2342047115662469e-02 -1.9750100908775048e-02 -8.6530679183263598e-03  3.3629365566143633e-02 -2.2001624284866506e-02 -4.8768504269575417e-03  3.4178671837930427e-02 -2.1638982962786962e-02 -9.9682042775018995e-03  4.5949297527382096e-02 -2.2697161238360786e-02 -5.2570735503167359e-03  4.6478034068656894e-02 -2.2403651149438836e-02 -1.0682923678722350e-02  5.8496908393161018e-02 -2.2817524052054158e-02 -5.4382206549802251e-03  5.8953302638443839e-02 -2.2601436382785396e-02 -1.1012228608524594e-02  4.5434659061345363e-03 -1.3537514846329870e-02 -1.6667214383140065e-03  4.6293288611467583e-03 -1.3308990737231796e-02 -3.4673090515149230e-03  0.0000000000000000e+00 0.0000000000000000e+00 0.0000000000000000e+00  0.0000000000000000e+00 0.0000000000000000e+00 0.0000000000000000e+00  1.3480472354978325e-02 -2.1854689494259342e-02 -3.0992277141155523e-03  1.3772932489390538e-02 -2.1449636536617054e-02 -6.4074862275622074e-03  2.4030923151327318e-02 -2.5914388362964370e-02 -4.1564744160152356e-03  2.4492536582462178e-02 -2.5451914148844020e-02 -8.5296004856970416e-03  3.5385724435838643e-02 -2.7621671940725560e-02 -4.8408702507091571e-03  3.5919619823849169e-02 -2.7197031282474381e-02 -9.8692576028188272e-03  4.7233309756310807e-02 -2.8193882096298910e-02 -5.2312955640062440e-03  4.7752330459815355e-02 -2.7852483532164001e-02 -1.0613736777919290e-02  5.9385638806380731e-02 -2.8257444433780192e-02 -5.4217671220479534e-03  5.9838404801348541e-02 -2.8007551593100973e-02 -1.0968658940056691e-02  8.5386595832304089e-03 -2.0326550541349703e-02 -1.7484227161826296e-03  8.5734948748813575e-03 -2.0077713127629473e-02 -3.6281631663884926e-03  0.0000000000000000e+00 0.0000000000000000e+00 0.0000000000000000e+00  0.0000000000000000e+00 0.0000000000000000e+00 0.0000000000000000e+00  1.7172092998601188e-02 -2.7873362229955834e-02 -3.2744677128268311e-03  1.7419810056958331e-02 -2.7441279694935164e-02 -6.6953950388038662e-03  2.6470225324079260e-02 -3.1188477053606504e-02 -4.3334690467844552e-03  2.6920838197066910e-02 -3.0704420047234098e-02 -8.8365166678501979e-03  3.6827551843507562e-02 -3.2655232959599594e-02 -4.9983226171717932e-03  3.7380390763341785e-02 -3.2215270676502969e-02 -1.0149880138815615e-02  4.8043828010813000e-02 -3.3234216163161211e-02 -5.3590880193393562e-03  4.8597014531556994e-02 -3.2882007681614804e-02 -1.0842901184375807e-02  5.9824210513664634e-02 -3.3383198509232812e-02 -5.5176908727125320e-03  6.0314175148667444e-02 -3.3125740538154459e-02 -1.1139990397582287e-02  4.8176485501272535e-03 1.3662068530686092e-02 -5.4864201122486267e-03  9.6709548066598126e-03 1.9962185998097813e-02 -5.6551076756884812e-03  0.0000000000000000e+00 0.0000000000000000e+00 0.0000000000000000e+00  0.0000000000000000e+00 0.0000000000000000e+00 0.0000000000000000e+00  1.4459868425298275e-02 2.1146361366121573e-02 -9.9886303276416483e-03  1.8271688401091921e-02 2.6870577668406382e-02 -1.0305156972023898e-02  2.5504383236639658e-02 2.4883834612097568e-02 -1.3089939913063311e-02  2.7892366269824016e-02 3.0143544506818196e-02 -1.3440894943612398e-02  3.6969136320630966e-02 2.6703893044855754e-02 -1.4952284412367881e-02  3.8419583376673762e-02 3.1794448309389635e-02 -1.5271126695570115e-02  4.8692845435810324e-02 2.7540176398604403e-02 -1.5956198292328080e-02  4.9565377557929807e-02 3.2631859007211259e-02 -1.6211525104235885e-02  6.0617440315760919e-02 2.7875293870214916e-02 -1.6432126901506999e-02  6.1135014910134455e-02 3.3035022862625767e-02 -1.6619320464347977e-02  3.7846056458230573e-03 9.1504064087389019e-03 -5.6709180737329317e-03  0.0000000000000000e+00 0.0000000000000000e+00 0.0000000000000000e+00  1.2316707942327532e-02 1.5762053235591499e-02 -1.0260738170393927e-02  2.3322691039285963e-02 1.9475327151155727e-02 -1.3347695345774041e-02  3.5228177474166442e-02 2.1343071617534227e-02 -1.5157886310335688e-02  4.7431313621015589e-02 2.2198149608694789e-02 -