<?xml version="1.0"?>
<VTKFile type="UnstructuredGrid"  version="0.1"  >
<UnstructuredGrid>
<Piece  NumberOfPoints="625" NumberOfCells="2522">
<Points>
<DataArray  type="Float64"  NumberOfComponents="3"  format="ascii">0 0 0.3333333333333333  0 0 0.4166666666666667  0.08333333333333333 0 0.4166666666666667  0.08333333333333333 0.08333333333333333 0.4166666666666667  0 0.08333333333333333 0.4166666666666667  0.08333333333333333 0.08333333333333333 0.5  0.08333333333333333 0 0.5  0 0 0.5  0 0.08333333333333333 0.5  0.1666666666666667 0 0.4166666666666667  0.1666666666666667 0.08333333333333333 0.4166666666666667  0.1666666666666667 0.08333333333333333 0.5  0.1666666666666667 0 0.5  0.25 0 0.4166666666666667  0.25 0.08333333333333333 0.4166666666666667  0.25 0.08333333333333333 0.5  0.25 0 0.5  0.3333333333333333 0 0.4166666666666667  0.3333333333333333 0.08333333333333333 0.4166666666666667  0.3333333333333333 0.08333333333333333 0.5  0.3333333333333333 0 0.5  0.4166666666666667 0 0.4166666666666667  0.4166666666666667 0.08333333333333333 0.4166666666666667  0.4166666666666667 0.08333333333333333 0.5  0.4166666666666667 0 0.5  0.5 0 0.4166666666666667  0.5 0.08333333333333333 0.4166666666666667  0.5 0.08333333333333333 0.5  0.5 0 0.5  0.08333333333333333 0.1666666666666667 0.4166666666666667  0.08333333333333333 0.1666666666666667 0.5  0 0.1666666666666667 0.4166666666666667  0 0.1666666666666667 0.5  0.1666666666666667 0.1666666666666667 0.4166666666666667  0.1666666666666667 0.1666666666666667 0.5  0.25 0.1666666666666667 0.4166666666666667  0.25 0.1666666666666667 0.5  0.3333333333333333 0.1666666666666667 0.4166666666666667  0.3333333333333333 0.1666666666666667 0.5  0.4166666666666667 0.1666666666666667 0.4166666666666667  0.4166666666666667 0.1666666666666667 0.5  0.5 0.1666666666666667 0.4166666666666667  0.5 0.1666666666666667 0.5  0.08333333333333333 0.25 0.4166666666666667  0.08333333333333333 0.25 0.5  0 0.25 0.4166666666666667  0 0.25 0.5  0.1666666666666667 0.25 0.4166666666666667  0.1666666666666667 0.25 0.5  0.25 0.25 0.4166666666666667  0.25 0.25 0.5  0.3333333333333333 0.25 0.4166666666666667  0.3333333333333333 0.25 0.5  0.4166666666666667 0.25 0.4166666666666667  0.4166666666666667 0.25 0.5  0.5 0.25 0.4166666666666667  0.5 0.25 0.5  0.08333333333333333 0.3333333333333333 0.4166666666666667  0.08333333333333333 0.3333333333333333 0.5  0 0.3333333333333333 0.4166666666666667  0 0.3333333333333333 0.5  0.1666666666666667 0.3333333333333333 0.4166666666666667  0.1666666666666667 0.3333333333333333 0.5  0.25 0.3333333333333333 0.5  0.3333333333333333 0.3333333333333333 0.5  0.4166666666666667 0.3333333333333333 0.5  0.5 0.3333333333333333 0.5  0.08333333333333333 0.4166666666666667 0.4166666666666667  0.08333333333333333 0.4166666666666667 0.5  0 0.4166666666666667 0.4166666666666667  0 0.4166666666666667 0.5  0.1666666666666667 0.4166666666666667 0.5  0.25 0.4166666666666667 0.5  0.08333333333333333 0.5 0.5  0 0.5 0.5  0 0.5 0.4166666666666667  0.1666666666666667 0.5 0.5  0.08333333333333333 0.5833333333333334 0.5  0 0.5833333333333334 0.5  0.08333333333333333 0.08333333333333333 0.5833333333333334  0.08333333333333333 0 0.5833333333333334  0 0 0.5833333333333334  0 0.08333333333333333 0.5833333333333334  0.1666666666666667 0.08333333333333333 0.5833333333333334  0.1666666666666667 0 0.5833333333333334  0.25 0.08333333333333333 0.5833333333333334  0.25 0 0.5833333333333334  0.3333333333333333 0.08333333333333333 0.5833333333333334  0.3333333333333333 0 0.5833333333333334  0.4166666666666667 0.08333333333333333 0.5833333333333334  0.4166666666666667 0 0.5833333333333334  0.5 0.08333333333333333 0.5833333333333334  0.5 0 0.5833333333333334  0.08333333333333333 0.1666666666666667 0.5833333333333334  0 0.1666666666666667 0.5833333333333334  0.1666666666666667 0.1666666666666667 0.5833333333333334  0.25 0.1666666666666667 0.5833333333333334  0.3333333333333333 0.1666666666666667 0.5833333333333334  0.4166666666666667 0.1666666666666667 0.5833333333333334  0.5 0.1666666666666667 0.5833333333333334  0.08333333333333333 0.25 0.5833333333333334  0 0.25 0.5833333333333334  0.1666666666666667 0.25 0.5833333333333334  0.25 0.25 0.5833333333333334  0.3333333333333333 0.25 0.5833333333333334  0.4166666666666667 0.25 0.5833333333333334  0.5 0.25 0.5833333333333334  0.08333333333333333 0.3333333333333333 0.5833333333333334  0 0.3333333333333333 0.5833333333333334  0.1666666666666667 0.3333333333333333 0.5833333333333334  0.25 0.3333333333333333 0.5833333333333334  0.3333333333333333 0.3333333333333333 0.5833333333333334  0.4166666666666667 0.3333333333333333 0.5833333333333334  0.5 0.3333333333333333 0.5833333333333334  0.08333333333333333 0.4166666666666667 0.5833333333333334  0 0.4166666666666667 0.5833333333333334  0.1666666666666667 0.4166666666666667 0.5833333333333334  0.25 0.4166666666666667 0.5833333333333334  0.3333333333333333 0.4166666666666667 0.5833333333333334  0.4166666666666667 0.4166666666666667 0.5833333333333334  0.5 0.4166666666666667 0.5833333333333334  0.08333333333333333 0.5 0.5833333333333334  0 0.5 0.5833333333333334  0.1666666666666667 0.5 0.5833333333333334  0.25 0.5 0.5833333333333334  0.3333333333333333 0.5 0.5833333333333334  0.08333333333333333 0.5833333333333334 0.5833333333333334  0 0.5833333333333334 0.5833333333333334  0.1666666666666667 0.5833333333333334 0.5833333333333334  0.25 0.5833333333333334 0.5833333333333334  0.08333333333333333 0.6666666666666666 0.5833333333333334  0 0.6666666666666666 0.5833333333333334  0.1666666666666667 0.6666666666666666 0.5833333333333334  0.08333333333333333 0.08333333333333333 0.6666666666666666  0.08333333333333333 0 0.6666666666666666  0 0 0.6666666666666666  0 0.08333333333333333 0.6666666666666666  0.1666666666666667 0.08333333333333333 0.6666666666666666  0.1666666666666667 0 0.6666666666666666  0.25 0.08333333333333333 0.6666666666666666  0.25 0 0.6666666666666666  0.3333333333333333 0.08333333333333333 0.6666666666666666  0.3333333333333333 0 0.6666666666666666  0.4166666666666667 0.08333333333333333 0.6666666666666666  0.4166666666666667 0 0.6666666666666666  0.5 0.08333333333333333 0.6666666666666666  0.5 0 0.6666666666666666  0.08333333333333333 0.1666666666666667 0.6666666666666666  0 0.1666666666666667 0.6666666666666666  0.1666666666666667 0.1666666666666667 0.6666666666666666  0.25 0.1666666666666667 0.6666666666666666  0.3333333333333333 0.1666666666666667 0.6666666666666666  0.4166666666666667 0.1666666666666667 0.6666666666666666  0.5 0.1666666666666667 0.6666666666666666  0.08333333333333333 0.25 0.6666666666666666  0 0.25 0.6666666666666666  0.1666666666666667 0.25 0.6666666666666666  0.25 0.25 0.6666666666666666  0.3333333333333333 0.25 0.6666666666666666  0.4166666666666667 0.25 0.6666666666666666  0.5 0.25 0.6666666666666666  0.08333333333333333 0.3333333333333333 0.6666666666666666  0 0.3333333333333333 0.6666666666666666  0.1666666666666667 0.3333333333333333 0.6666666666666666  0.25 0.3333333333333333 0.6666666666666666  0.3333333333333333 0.3333333333333333 0.6666666666666666  0.4166666666666667 0.3333333333333333 0.6666666666666666  0.5 0.3333333333333333 0.6666666666666666  0.08333333333333333 0.4166666666666667 0.6666666666666666  0 0.4166666666666667 0.6666666666666666  0.1666666666666667 0.4166666666666667 0.6666666666666666  0.25 0.4166666666666667 0.6666666666666666  0.3333333333333333 0.4166666666666667 0.6666666666666666  0.4166666666666667 0.4166666666666667 0.6666666666666666  0.5 0.4166666666666667 0.6666666666666666  0.08333333333333333 0.5 0.6666666666666666  0 0.5 0.6666666666666666  0.1666666666666667 0.5 0.6666666666666666  0.25 0.5 0.6666666666666666  0.3333333333333333 0.5 0.6666666666666666  0.4166666666666667 0.5 0.5833333333333334  0.4166666666666667 0.5 0.6666666666666666  0.5 0.5 0.5833333333333334  0.5 0.5 0.6666666666666666  0.08333333333333333 0.5833333333333334 0.6666666666666666  0 0.5833333333333334 0.6666666666666666  0.1666666666666667 0.5833333333333334 0.6666666666666666  0.25 0.5833333333333334 0.6666666666666666  0.3333333333333333 0.5833333333333334 0.5833333333333334  0.3333333333333333 0.5833333333333334 0.6666666666666666  0.4166666666666667 0.5833333333333334 0.5833333333333334  0.4166666666666667 0.5833333333333334 0.6666666666666666  0.5 0.5833333333333334 0.5833333333333334  0.5 0.5833333333333334 0.6666666666666666  0.08333333333333333 0.6666666666666666 0.6666666666666666  0 0.6666666666666666 0.6666666666666666  0.1666666666666667 0.6666666666666666 0.6666666666666666  0.25 0.6666666666666666 0.5833333333333334  0.25 0.6666666666666666 0.6666666666666666  0.3333333333333333 0.6666666666666666 0.5833333333333334  0.3333333333333333 0.6666666666666666 0.6666666666666666  0.4166666666666667 0.6666666666666666 0.5833333333333334  0.4166666666666667 0.6666666666666666 0.6666666666666666  0.5 0.6666666666666666 0.5833333333333334  0.5 0.6666666666666666 0.6666666666666666  0.08333333333333333 0.75 0.5833333333333334  0.08333333333333333 0.75 0.6666666666666666  0 0.75 0.5833333333333334  0 0.75 0.6666666666666666  0.1666666666666667 0.75 0.5833333333333334  0.1666666666666667 0.75 0.6666666666666666  0.25 0.75 0.5833333333333334  0.25 0.75 0.6666666666666666  0.3333333333333333 0.75 0.5833333333333334  0.3333333333333333 0.75 0.6666666666666666  0.4166666666666667 0.75 0.5833333333333334  0.4166666666666667 0.75 0.6666666666666666  0.5 0.75 0.5833333333333334  0.5 0.75 0.6666666666666666  0.08333333333333333 0.8333333333333334 0.5833333333333334  0.08333333333333333 0.8333333333333334 0.6666666666666666  0 0.8333333333333334 0.5833333333333334  0 0.8333333333333334 0.6666666666666666  0.1666666666666667 0.8333333333333334 0.5833333333333334  0.1666666666666667 0.8333333333333334 0.6666666666666666  0.25 0.8333333333333334 0.5833333333333334  0.25 0.8333333333333334 0.6666666666666666  0.3333333333333333 0.8333333333333334 0.5833333333333334  0.3333333333333333 0.833333333333
[...]
<PointData  Vectors="f_18"> 
<DataArray  type="Float64"  Name="f_18"  NumberOfComponents="3" format="ascii">0.0000000000000000e+00 0.0000000000000000e+00 0.0000000000000000e+00  0.0000000000000000e+00 0.0000000000000000e+00 0.0000000000000000e+00  1.0172205004406128e-02 1.9367817336603841e-02 1.7747198140700931e-03  4.2286569241456557e-03 1.3272558965491852e-02 1.6389145441793006e-03  0.0000000000000000e+00 0.0000000000000000e+00 0.0000000000000000e+00  4.1853910589755581e-03 1.3335200335088384e-02 5.1321919725078247e-05  1.0150366989326564e-02 1.9431516001281735e-02 1.1034667025868351e-04  0.0000000000000000e+00 0.0000000000000000e+00 0.0000000000000000e+00  0.0000000000000000e+00 0.0000000000000000e+00 0.0000000000000000e+00  1.7212375619060395e-02 2.6784666410647740e-02 3.2954311121836622e-03  1.2558831100653683e-02 2.1194334506171215e-02 3.1527271233658559e-03  1.2450605271455676e-02 2.1311369465700759e-02 1.5598553963875461e-04  1.7128376772479852e-02 2.6903832394431702e-02 1.8374847794057686e-04  2.5008359580860680e-02 3.0355300054533102e-02 4.4491796141567595e-03  2.2096356723794168e-02 2.5251604097795127e-02 4.2873147729237228e-03  2.1930718028776382e-02 2.5396686322576436e-02 2.1193062661264663e-04  2.4854991091151010e-02 3.0505993301898918e-02 2.3579484480877212e-04  3.3870859552493131e-02 3.2077709205850978e-02 5.2145639208708901e-03  3.2122434888279712e-02 2.7180569272005479e-02 5.0576973870735129e-03  3.1919750433272873e-02 2.7325467435206058e-02 2.5778117068153515e-04  3.3666851268552456e-02 3.2229908669152832e-02 2.7551617244794504e-04  4.3547050747595906e-02 3.2847278932638009e-02 5.6582618210371839e-03  4.2517959464044672e-02 2.7968105619833230e-02 5.5216154048727340e-03  4.2303761515811500e-02 2.8093864828404907e-02 2.9300502605760328e-04  4.3322104120475727e-02 3.2980001947230525e-02 3.0662892194603577e-04  5.3768776169607110e-02 3.3117226686629038e-02 5.8771884661441304e-03  5.3177349320152570e-02 2.8169840584964228e-02 5.7686291708383894e-03  5.2971516395271603e-02 2.8268323661672569e-02 3.2150580585331060e-04  5.3547810948689580e-02 3.3221298446438195e-02 3.3208537797403692e-04  3.1712084475389612e-03 8.9389468370895987e-03 1.6885671349512500e-03  3.1240821539009278e-03 8.9986077355421884e-03 7.7250869283398187e-05  0.0000000000000000e+00 0.0000000000000000e+00 0.0000000000000000e+00  0.0000000000000000e+00 0.0000000000000000e+00 0.0000000000000000e+00  1.0236599471163869e-02 1.5781286663310880e-02 3.1781303116318188e-03  1.0123760799307173e-02 1.5883019626828893e-02 1.4266608233933346e-04  1.9618904096045379e-02 1.9765775803464915e-02 4.3266397492879721e-03  1.9449190760524149e-02 1.9890561847959735e-02 2.0568543093085116e-04  3.0063174680781832e-02 2.1774625414530728e-02 5.0926871417237814e-03  2.9856090150868299e-02 2.1900013199851964e-02 2.5253097597593066e-04  4.0965919599686811e-02 2.2633874178631174e-02 5.5482259623602526e-03  4.0748668728403124e-02 2.2743613003633954e-02 2.8896699264446688e-04  5.2052945449223363e-02 2.2875069798861784e-02 5.7865775983560073e-03  5.1846163653156703e-02 2.2961577403320086e-02 3.1839453799424903e-04  2.7267950295040162e-03 6.0573517210825972e-03 1.7465680459726725e-03  2.6805438304317187e-03 6.1076458727234335e-03 6.9020916895024166e-05  0.0000000000000000e+00 0.0000000000000000e+00 0.0000000000000000e+00  0.0000000000000000e+00 0.0000000000000000e+00 0.0000000000000000e+00  9.1100871918515913e-03 1.1037367974273050e-02 3.2842724855995636e-03  8.9966435056393120e-03 1.1118737027120296e-02 1.4295085308748293e-04  1.8028001691336143e-02 1.4337004481189452e-02 4.4468410119366357e-03  1.7854719872038519e-02 1.4434470472366163e-02 2.0508612719086116e-04  2.8418668934259435e-02 1.6187866609692812e-02 5.2101970126407077e-03  2.8205007815017110e-02 1.6285808022425723e-02 2.5443477252838599e-04  3.9511509085729375e-02 1.7056935105316341e-02 5.6477266748158296e-03  3.9286208102449385e-02 1.7143262366788307e-02 2.9076147882549754e-04  5.0869046230695616e-02 1.7347849119128095e-02 5.8628717385921601e-03  5.0654743844360577e-02 1.7416484613447095e-02 3.1962196105135533e-04  2.5162367366234032e-03 3.7998677497984323e-03 1.8127726116801128e-03  2.4717268705089974e-03 3.8352974708577205e-03 6.6137737501505877e-05  0.0000000000000000e+00 0.0000000000000000e+00 0.0000000000000000e+00  0.0000000000000000e+00 0.0000000000000000e+00 0.0000000000000000e+00  8.5015451414956391e-03 7.0173284834819357e-03 3.3899689054259674e-03  8.3873427395467579e-03 7.0734280868247745e-03 1.4056801235741299e-04  1.6886235336110302e-02 9.3855559833090716e-03 2.0668368393184081e-04  2.7075149146527283e-02 1.0779571458033396e-02 2.5717803711804550e-04  3.8181756451637926e-02 1.1482828493953158e-02 2.9397062435783183e-04  4.9681483101390721e-02 1.1745563685670826e-02 3.2218661372934650e-04  2.4106245563886805e-03 1.8607551089504495e-03 1.8607551089504411e-03  2.3672730121324466e-03 1.8790190591938863e-03 6.5881855779142376e-05  0.0000000000000000e+00 0.0000000000000000e+00 0.0000000000000000e+00  0.0000000000000000e+00 0.0000000000000000e+00 0.0000000000000000e+00  8.0690823573991398e-03 3.4948221225930467e-03 1.4071361866076890e-04  1.6360476814964071e-02 4.6965281984582474e-03 2.0825914132827059e-04  2.3243779493882857e-03 6.6605817742868432e-05 6.6605817742867714e-05  0.0000000000000000e+00 0.0000000000000000e+00 0.0000000000000000e+00  0.0000000000000000e+00 0.0000000000000000e+00 0.0000000000000000e+00  7.9536451258067024e-03 1.4199434042795636e-04 1.4199434042795554e-04  2.3294515852362932e-03 -1.7383466217892793e-03 6.7582279930156899e-05  0.0000000000000000e+00 0.0000000000000000e+00 0.0000000000000000e+00  4.1944407164737543e-03 1.3279471195056455e-02 -1.5309358013886280e-03  1.0136571378186379e-02 1.9379972179373428e-02 -1.5420986676904381e-03  0.0000000000000000e+00 0.0000000000000000e+00 0.0000000000000000e+00  0.0000000000000000e+00 0.0000000000000000e+00 0.0000000000000000e+00  1.2513118907267310e-02 2.1204832526239868e-02 -2.8304991610766184e-03  1.7171066220238364e-02 2.6802611153329752e-02 -2.9143556091541520e-03  2.2051694145355481e-02 2.5266588262186664e-02 -3.8534069660737650e-03  2.4970436810774571e-02 3.0379966116630221e-02 -3.9659301866516476e-03  3.2076141358706838e-02 2.7196611020244187e-02 -4.5359243924815553e-03  3.3829467647528234e-02 3.2103981478636141e-02 -4.6561818573997967e-03  4.2467494434075936e-02 2.7981781973802175e-02 -4.9332734544874591e-03  4.3498116882796353e-02 3.2870065841805601e-02 -5.0421034269226917e-03  5.3122615121378093e-02 2.8180131957953842e-02 -5.1256810497229931e-03  5.3712995052450321e-02 3.3134615672876823e-02 -5.2131510926556497e-03  3.1309431656002381e-03 8.9421660036522136e-03 -1.5297586656973961e-03  0.0000000000000000e+00 0.0000000000000000e+00 0.0000000000000000e+00  1.0186356557222428e-02 1.5786787112577076e-02 -2.8820537389617974e-03  1.9574409796708658e-02 1.9777003028188828e-02 -3.9033152047673403e-03  3.0017394610774021e-02 2.1788323516006659e-02 -4.5799598258906126e-03  4.0916186670204829e-02 2.2646337905081085e-02 -4.9670379347533542e-03  5.1999526041613002e-02 2.2884655291801212e-02 -5.1492482903878123e-03  2.6859513335291707e-03 6.0616135611436467e-03 -1.6029980996135789e-03  0.0000000000000000e+00 0.0000000000000000e+00 0.0000000000000000e+00  9.0586401798817776e-03 1.1044269511070796e-02 -2.9853733878017195e-03  1.7983775576085537e-02 1.4347951619856589e-02 -4.0221558574376265e-03  2.8373921164922364e-02 1.6200823119145665e-02 -4.6920378389318134e-03  3.9462445166835926e-02 1.7068771259576978e-02 -5.0622983515045258e-03  5.0816116476066292e-02 1.7357034812320236e-02 -5.2230578037344762e-03  2.4769249430591739e-03 3.8047525308624692e-03 -1.6735521457114679e-03  0.0000000000000000e+00 0.0000000000000000e+00 0.0000000000000000e+00  8.4495271830968329e-03 7.0247505691304760e-03 -3.0943416935886323e-03  1.7018456056301905e-02 9.3293868685773718e-03 -4.1438355837157262e-03  2.7250399839646815e-02 1.0724235819949407e-02 -4.8101031042884759e-03  3.8365991721826781e-02 1.1433933458789628e-02 -5.1644196975659910e-03  4.9850829067695529e-02 1.1706079938421586e-02 -5.3039286115179234e-03  2.3724934753468715e-03 1.8645259536060191e-03 -1.7214388077769465e-03  0.0000000000000000e+00 0.0000000000000000e+00 0.0000000000000000e+00  8.1315421198515474e-03 3.4719292661892342e-03 -3.1696735748258475e-03  1.6494434126694303e-02 4.6702363723117868e-03 -4.2298320736109743e-03  2.6601044768027833e-02 5.4330368641921974e-03 -4.8940072307690199e-03  3.7694103741276533e-02 5.8438426295492488e-03 -5.2381964783747839e-03  4.9229609780336699e-02 6.0183739905407532e-03 -5.3632188026094514e-03  2.3294515852362871e-03 6.7582279930160355e-05 -1.7383466217892852e-03  0.0000000000000000e+00 0.0000000000000000e+00 0.0000000000000000e+00  8.0159671481738748e-03 1.4385153999071177e-04 -3.1963188549981188e-03  1.6313310687958243e-02 2.1287635074218050e-04 -4.2601714572499611e-03  2.6374897814743514e-02 2.6561049074318296e-04 -4.9236452055929549e-03  2.3341547036463055e-03 -1.7222998471967722e-03 -1.7222998471967750e-03  0.0000000000000000e+00 0.0000000000000000e+00 0.0000000000000000e+00  8.0776763838624598e-03 -3.1702062316658320e-03 -3.1702062316658320e-03  1.6446009038019117e-02 -4.2292055419783942e-03 -4.2292055419783942e-03  2.3899051391264681e-03 -3.6395303155060893e-03 -1.6759506731231432e-03  0.0000000000000000e+00 0.0000000000000000e+00 0.0000000000000000e+00  8.3413787985735909e-03 -6.6743396621373385e-03 -3.0956716743675136e-03  4.2612569973116991e-03 1.3103068319749472e-02 -3.2012910767507132e-03  1.0138140066312994e-02 1.9213234959150761e-02 -3.2670260249101214e-03  0.0000000000000000e+00 0.0000000000000000e+00 0.0000000000000000e+00  0.0000000000000000e+00 0.0000000000000000e+00 0.0000000000000000e+00  1.2773575648867523e-02 2.0875105642310265e-02 -5.9491918825982084e-03  1.7372388968419163e-02 2.6479024344854586e-02 -6.1264733797631397e-03  2.2489153439050950e-02 2.4867711216027214e-02 -8.0296948306079422e-03  2.5389182136298930e-02 2.9980354830321753e-02 -8.2551570944937955e-03  3.2607581224955093e-02 2.6805903072024673e-02 -9.3882261925524596e-03  3.4376465088876186e-02 3.1709370797538973e-02 -9.6188943580564103e-03  4.3008578575491459e-02 2.7646814770506289e-02 -1.0169213895547346e-02  4.4073619304639017e-02 3.2530632861021404e-02 -1.0372930410457339e-02  5.3618142055563062e-02 2.7920257464496927e-02 -1.0551365236962335e-02  5.4249514070711595e-02 3.2870771429455894e-02 -1.0712971735688694e-02  3.1959286971804269e-03 8.7713957677040891e-03 -3.2455026300675181e-03  0.0000000000000000e+00 0.0000000000000000e+00 0.0000000000000000e+00  1.0450730013594421e-02 1.5498821627851383e-02 -6.0669109911032498e-03  2.0025797447045326e-02 1.9436310033877951e-02 -8.1512343580927380e-03  3.0564867456588669e-02 2.1454268869834460e-02 -9.4952638971288906e-03  4.1469542913361364e-02 2.2358002083438397e-02 -1.0251525441925714e-02  5.2501759515194979e-02 2.2659218508951931e-02 -1.0608766085615258e-02  2.7467164532707609e-03 5.9243939262626829e-03 -3.3961229068925889e-03  0.0000000000000000e+00 0.0000000000000000e+00 0.0000000000000000e+00  9.3221382066775091e-03 1.0823716750276501e-02 -6.2925389578485412e-03  1.8447215711380239e-02 1.4090533847540318e-02 -8.4070811195354513e-03  2.8944160659207400e-02 1.5947487380632272e-02 -9.7366390052418973e-03  4.0041817988014497e-02 1.6847880459662366e-02 -1.0454445053698330e-02  5.1341805645323216e-02 1.7182339396523607e-02 -1.0763991968475547e-02  2.5352009495702601e-03 3.7133362625327983e-03 -3.5389856134088464e-03  0.0000000000000000e+00 0.0000000000000000e+00 0.0000000000000000e+00  8.7134680249979449e-03 6.8801997066319405e-03 -6.5162045950862574e-03  1.7491579076503207e-02 9.1615967735385311e-03 -8.6611277080378725e-03  2.7839743468142213e-02 1.0558221153342913e-02 -9.9830625877675438e-03  3.8969164104629236e-02 1.1287663842089945e-02 -1.0666880802931697e-02  5.0399909642107533e-02 1.1588996481405140e-02 -1.0930828452961654e-02  2.4294302838614766e-03 1.8201361310955086e-03 -3.6353704829174311e-03  0.0000000000000000e+00 0.0000000000000000e+00 0.0000000000000000e+00  8.3961256717975784e-03 3.4023769415789623e-03 -6.6693841821114149e-03  1.6973427163005431e-02 4.5896569525128873e-03 -8.8379016442984033e-03  2.7202080273236562e-02 5.3528447794930472e-03 -1.0156736297319630e-02  3.8312466266341799e-02 5.7724455907393430e-03 -1.0819356393790249e-02  4.9794352207150401e-02 5.9605152010146888e-03 -1.1052664492874120e-02  2.3856164957084063e-03 6.8706432232721432e-05 -3.6701323684940126e-03  0.0000000000000000e+00 0.0000000000000000e+00 0.0000000000000000e+00  8.2805314102648089e-03 1.4646391464466076e-04 -6.7245649482502255e-03  1.6793832954736500e-02 2.1615479113070663e-04 -8.9015411839632810e-03  2.6979272403221139e-02 2.6852124804195251e-04 -1.0219624617879439e-02  3.7453649580647431e-02 3.0201240956809964e-04 -5.2644363860454117e-03  3.8076685393905914e-02 3.0401796569031337e-04 -1.0875188496549015e-02  4.9000290585427327e-02 3.2823763955127164e-04 -5.3846940533054406e-03  4.9570189510966013e-02 3.2927694938565254e-04 -1.1098008590641790e-02  2.3899051391264641e-03 -1.6759506731231391e-03 -3.6395303155060919e-03  0.0000000000000000e+00 0.0000000000000000e+00 0.0000000000000000e+00  8.3413787985735875e-03 -3.0956716743675153e-03 -6.6743396621373333e-03  1.6923658121534912e-02 -4.1422852890610831e-03 -8.8419401380213213e-03  2.6552456492982532e-02 -4.8926476544164481e-03 -4.8926476544164481e-03  2.7151793437927490e-02 -4.8068985724484294e-03 -1.0160241441005975e-02  3.7641606683721580e-02 -5.2371215932125337e-03 -5.2371215932125337e-03  3.8258585472043201e-02 -5.1620211255365700e-03 -1.0823075934180217e-02  4.9174070492983321e-02 -5.3630733611651710e-03 -5.3630733611651649e-03  4.9738140304366053e-02 -5.3034133340413804e-03 -1.1056752856649433e-02  2.4458740903030240e-03 -3.5473038527142897e-03 -3.5473038527142875e-03  0.0000000000000000e+00 0.0000000000000000e+00 0.0000000000000000e+00  8.6037903390349391e-03 -6.5256798136899743e-03 -6.5256798136899734e-03  1.6923658121534908e-02 -8.8419401380213265e-03 -4.1422852890610823e-03  1.7394220251798490e-02 -8.6684894325838365e-03 -8.6684894325838330e-03  2.7151793437927486e-02 -1.0160241441005975e-02 -4.8068985724484294e-03  2.7738030308224391e-02 -9.9894301420071149e-03 -9.9894301420071167e-03  3.8258585472043201e-02 -1.0823075934180219e-02 -5.1620211255365570e-03  3.8859464305206329e-02 -1.0673903329180293e-02 -1.0673903329180289e-02  4.9738140304366053e-02 -1.1056752856649423e-02 -5.3034133340413795e-03  5.0286377010746570e-02 -1.0938543214162558e-02 -1.0938543214162565e-02  2.5305277953922411e-03 -5.8472712968345086e-03 -1.6086092077245125e-03  2.5884278721383701e-03 -5.7118636770832395e-03 -3.4089111905402430e-03  0.0000000000000000e+00 0.0000000000000000e+00 0.0000000000000000e+00  0.0000000000000000e+00 0.0000000000000000e+00 0.0000000000000000e+00  8.9070543915374702e-03 -1.0586444976648027e-02 -2.9881678322925928e-03  9.1687002393930142e-03 -1.0363696788259375e-02 -6.3056836741949710e-03  1.7845137682143550e-02 -1.3788812546432517e-02 -4.0186019948388347e-03  1.8304958324660302e-02 -1.3527083885532575e-02 -8.4158586656232475e-03  2.8219996047223674e-02 -1.5613996321868842e-02 -4.6867578104505241e-03  2.8786324408089207e-02 -1.5356983880686223e-02 -9.7449234723085525e-03  3.9294702688736721e-02 -1.6464987866120925e-02 -5.0582531613045881e-03  3.9871832544196351e-02 -1.6242133750487716e-02 -1.0463809180937709e-02  5.0643675798458569e-02 -1.6725016797622005e-02 -5.2218688900867415e-03  5.1169251164585296e-02 -1.6549830851153937e-02 -1.0774354626631065e-02  2.9027390421104541e-03 -8.5965085437886488e-03 -1.5410588629466550e-03  2.9662496115758102e-03 -8.4307272738834323e-03 -3.2638796584504772e-03  0.0000000000000000e+00 0.0000000000000000e+00 0.0000000000000000e+00  0.0000000000000000e+00 0.0000000000000000e+00 0.0000000000000000e+00  1.0033869047594247e-02 -1.5140668617583657e-02 -2.8820481165029669e-03  1.0295815096236892e-02 -1.4853690342308368e-02 -6.0789581824844258e-03  1.9386155577116166e-02 -1.9153092792408389e-02 -3.8992602494588406e-03  1.9832862116336471e-02 -1.8810183807891734e-02 -8.1610047541598556e-03  2.9791899031697020e-02 -2.1220900404633463e-02 -4.5733280332991089e-03  3.0335691093444386e-02 -2.0884422592814450e-02 -9.5045176501166832e-03  4.0679200988548513e-02 -2.2082503498828912e-02 -4.9621939611614232e-03  4.1231621711218643e-02 -2.1792796553442566e-02 -1.0262488768734772e-02  5.1767454640060336e-02 -2.2284856252065683e-02 -5.1476937675911470e-03  5.2271253586347509e-02 -2.2059044421022196e-02 -1.0620730761877419e-02  4.1306317468304543e-03 -1.2396488695676585e-02 -1.5106348081421323e-03  4.2001398956194409e-03 -1.2223395824122610e-02 -3.1932130353048895e-03  0.0000000000000000e+00 0.0000000000000000e+00 0.0000000000000000e+00  0.0000000000000000e+00 0.0000000000000000e+00 0.0000000000000000e+00  1.2305577637954767e-02 -2.0506543418263239e-02 -2.8431128523761146e-03  1.2562378519671865e-02 -2.0179792472694306e-02 -5.9740438857788713e-03  2.1730015165933356e-02 -2.4776248101129140e-02 -3.8588093743428123e-03  2.2162399796863141e-02 -2.4376966264540525e-02 -8.0483981374193728e-03  3.1755612870957413e-02 -2.6728334522376659e-02 -4.5363381458705821e-03  3.2284313179288711e-02 -2.6335981688437163e-02 -9.4045480881787095e-03  4.2171972037607641e-02 -2.7460502125012144e-02 -4.9322334082396663e-03  4.2713658768347464e-02 -2.7124175018058385e-02 -1.0184482257370276e-02  5.2847075756963457e-02 -2.7590693344820814e-02 -5.1258286572091723e-03  5.3345741596645249e-02 -2.7330021583317467e-02 -1.0565565390132356e-02  8.6869517113538474e-03 -1.8731409141784894e-02 -1.5387109185190642e-03  8.7113204319531051e-03 -1.8557051378683936e-02 -3.2878126370666670e-03  0.0000000000000000e+00 0.0000000000000000e+00 0.0000000000000000e+00  0.0000000000000000e+00 0.0000000000000000e+00 0.0000000000000000e+00  1.6583672335596128e-02 -2.6308277497554995e-02 -2.9856777519657973e-03  1.6793440596904009e-02 -2.5970342438782861e-02 -6.2077828955959240e-03  2.4628911435091015e-02 -2.9867692382864502e-02 -4.0094134867126917e-03  2.5043431016191407e-02 -2.9455435257834242e-02 -8.3074880606164095e-03  3.3531606950717968e-02 -3.1539530861943943e-02 -4.6770289823108227e-03  3.4072652760512988e-02 -3.1135989378550062e-02 -9.6546125148314656e-03  4.3203969002253942e-02 -3.2255296856602091e-02 -5.0524873954618400e-03  4.3777350786302557e-02 -3.1910182406098754e-02 -1.0401049363740063e-02  5.3419152817634291e-02 -3.2473464644413419e-02 -5.2206218052426329e-03  5.3957706175872727e-02 -3.2206300175147688e-02 -1.0736532958932619e-02  4.4297845506194988e-03 1.2802706930680991e-02 -5.0942839007558109e-03  1.0206695868435946e-02 1.8927856304617175e-02 -5.1789578315425654e-03  0.0000000000000000e+00 0.0000000000000000e+00 0.0000000000000000e+00  0.0000000000000000e+00 0.0000000000000000e+00 0.0000000000000000e+00  1.3338174317134792e-02 2.0326961118886218e-02 -9.3701961586746905e-03  1.7852863471326589e-02 2.5924601924859479e-02 -9.5958424076643869e-03  2.3337623283237074e-02 2.4224945537812556e-02 -1.2430151021098079e-02  2.6216710521304087e-02 2.9318773326316147e-02 -1.2711079750092200e-02  3.3556014630016499e-02 2.6197617020498120e-02 -1.4338775570051863e-02  3.5353058822485219e-02 3.1080892003116280e-02 -1.4617721362814836e-02  4.3917577692548691e-02 2.7141929900705925e-02 -1.5403085355190485e-02  4.5036137494260456e-02 3.2008203540992639e-02 -1.5643994527172762e-02  5.4415300268232436e-02 2.7539316150812419e-02 -1.5919050908451284e-02  5.5108014038321544e-02 3.2475876180090624e-02 -1.6107160107181530e-02  3.3584916852422379e-03 8.4967551201273177e-03 -5.2264735557107662e-03  0.0000000000000000e+00 0.0000000000000000e+00 0.0000000000000000e+00  1.1020971697415446e-02 1.5043579584863184e-02 -9.6122562068306130e-03  2.0902060681753071e-02 1.8907551545449073e-02 -1.2681234347209599e-02  3.1545750356684152e-02 2.0948251688297521e-02 -1.4555987758153022e-02  4.2403117517419667e-02 2.1932358182623259e-02 -