<?xml version="1.0"?>
<VTKFile type="UnstructuredGrid"  version="0.1"  >
<UnstructuredGrid>
<Piece  NumberOfPoints="649" NumberOfCells="2627">
<Points>
<DataArray  type="Float64"  NumberOfComponents="3"  format="ascii">0.5 0 0  0.5833333333333334 0 0  0.5833333333333334 0.08333333333333333 0  0.5833333333333334 0.08333333333333333 0.08333333333333333  0.5833333333333334 0 0.08333333333333333  0.5 0 0.08333333333333333  0.5 0.08333333333333333 0  0.5 0.08333333333333333 0.08333333333333333  0.6666666666666666 0 0  0.6666666666666666 0.08333333333333333 0  0.6666666666666666 0.08333333333333333 0.08333333333333333  0.6666666666666666 0 0.08333333333333333  0.75 0 0  0.75 0.08333333333333333 0  0.75 0.08333333333333333 0.08333333333333333  0.75 0 0.08333333333333333  0.8333333333333334 0 0  0.8333333333333334 0.08333333333333333 0  0.8333333333333334 0.08333333333333333 0.08333333333333333  0.8333333333333334 0 0.08333333333333333  0.9166666666666666 0 0  0.9166666666666666 0.08333333333333333 0  0.9166666666666666 0.08333333333333333 0.08333333333333333  0.9166666666666666 0 0.08333333333333333  1 0 0  1 0.08333333333333333 0  1 0.08333333333333333 0.08333333333333333  1 0 0.08333333333333333  0.5833333333333334 0.1666666666666667 0  0.5833333333333334 0.1666666666666667 0.08333333333333333  0.5 0.1666666666666667 0  0.5 0.1666666666666667 0.08333333333333333  0.6666666666666666 0.1666666666666667 0  0.6666666666666666 0.1666666666666667 0.08333333333333333  0.75 0.1666666666666667 0  0.75 0.1666666666666667 0.08333333333333333  0.8333333333333334 0.1666666666666667 0  0.8333333333333334 0.1666666666666667 0.08333333333333333  0.9166666666666666 0.1666666666666667 0  0.9166666666666666 0.1666666666666667 0.08333333333333333  1 0.1666666666666667 0  1 0.1666666666666667 0.08333333333333333  0.5833333333333334 0.25 0  0.5833333333333334 0.25 0.08333333333333333  0.5 0.25 0  0.5 0.25 0.08333333333333333  0.6666666666666666 0.25 0  0.6666666666666666 0.25 0.08333333333333333  0.75 0.25 0  0.75 0.25 0.08333333333333333  0.8333333333333334 0.25 0  0.8333333333333334 0.25 0.08333333333333333  0.9166666666666666 0.25 0  0.9166666666666666 0.25 0.08333333333333333  1 0.25 0  1 0.25 0.08333333333333333  0.5833333333333334 0.3333333333333333 0  0.5833333333333334 0.3333333333333333 0.08333333333333333  0.5 0.3333333333333333 0  0.5 0.3333333333333333 0.08333333333333333  0.6666666666666666 0.3333333333333333 0  0.6666666666666666 0.3333333333333333 0.08333333333333333  0.75 0.3333333333333333 0  0.75 0.3333333333333333 0.08333333333333333  0.8333333333333334 0.3333333333333333 0  0.8333333333333334 0.3333333333333333 0.08333333333333333  0.9166666666666666 0.3333333333333333 0  0.9166666666666666 0.3333333333333333 0.08333333333333333  1 0.3333333333333333 0  1 0.3333333333333333 0.08333333333333333  0.5833333333333334 0.4166666666666667 0  0.5833333333333334 0.4166666666666667 0.08333333333333333  0.5 0.4166666666666667 0  0.5 0.4166666666666667 0.08333333333333333  0.6666666666666666 0.4166666666666667 0  0.6666666666666666 0.4166666666666667 0.08333333333333333  0.75 0.4166666666666667 0  0.75 0.4166666666666667 0.08333333333333333  0.8333333333333334 0.4166666666666667 0  0.8333333333333334 0.4166666666666667 0.08333333333333333  0.9166666666666666 0.4166666666666667 0  0.9166666666666666 0.4166666666666667 0.08333333333333333  1 0.4166666666666667 0  1 0.4166666666666667 0.08333333333333333  0.5833333333333334 0.5 0  0.5833333333333334 0.5 0.08333333333333333  0.5 0.5 0  0.5 0.5 0.08333333333333333  0.6666666666666666 0.5 0  0.6666666666666666 0.5 0.08333333333333333  0.75 0.5 0  0.75 0.5 0.08333333333333333  0.8333333333333334 0.5 0  0.8333333333333334 0.5 0.08333333333333333  0.9166666666666666 0.5 0  0.9166666666666666 0.5 0.08333333333333333  1 0.5 0  1 0.5 0.08333333333333333  0.5833333333333334 0.5833333333333334 0  0.5833333333333334 0.5833333333333334 0.08333333333333333  0.5 0.5833333333333334 0  0.5 0.5833333333333334 0.08333333333333333  0.6666666666666666 0.5833333333333334 0  0.6666666666666666 0.5833333333333334 0.08333333333333333  0.75 0.5833333333333334 0  0.75 0.5833333333333334 0.08333333333333333  0.8333333333333334 0.5833333333333334 0  0.8333333333333334 0.5833333333333334 0.08333333333333333  0.9166666666666666 0.5833333333333334 0  0.9166666666666666 0.5833333333333334 0.08333333333333333  1 0.5833333333333334 0  1 0.5833333333333334 0.08333333333333333  0.5833333333333334 0.6666666666666666 0  0.5833333333333334 0.6666666666666666 0.08333333333333333  0.5 0.6666666666666666 0  0.5 0.6666666666666666 0.08333333333333333  0.6666666666666666 0.6666666666666666 0  0.6666666666666666 0.6666666666666666 0.08333333333333333  0.75 0.6666666666666666 0  0.75 0.6666666666666666 0.08333333333333333  0.8333333333333334 0.6666666666666666 0  0.8333333333333334 0.6666666666666666 0.08333333333333333  0.9166666666666666 0.6666666666666666 0  0.9166666666666666 0.6666666666666666 0.08333333333333333  1 0.6666666666666666 0  1 0.6666666666666666 0.08333333333333333  0.5833333333333334 0.75 0  0.5833333333333334 0.75 0.08333333333333333  0.5 0.75 0  0.5 0.75 0.08333333333333333  0.6666666666666666 0.75 0  0.6666666666666666 0.75 0.08333333333333333  0.75 0.75 0  0.75 0.75 0.08333333333333333  0.8333333333333334 0.75 0  0.8333333333333334 0.75 0.08333333333333333  0.9166666666666666 0.75 0  0.9166666666666666 0.75 0.08333333333333333  1 0.75 0  1 0.75 0.08333333333333333  0.5833333333333334 0.8333333333333334 0  0.5833333333333334 0.8333333333333334 0.08333333333333333  0.5 0.8333333333333334 0  0.5 0.8333333333333334 0.08333333333333333  0.6666666666666666 0.8333333333333334 0  0.6666666666666666 0.8333333333333334 0.08333333333333333  0.75 0.8333333333333334 0  0.75 0.8333333333333334 0.08333333333333333  0.8333333333333334 0.8333333333333334 0  0.8333333333333334 0.8333333333333334 0.08333333333333333  0.9166666666666666 0.8333333333333334 0  0.9166666666666666 0.8333333333333334 0.08333333333333333  1 0.8333333333333334 0  1 0.8333333333333334 0.08333333333333333  0.5833333333333334 0.9166666666666666 0  0.5833333333333334 0.9166666666666666 0.08333333333333333  0.5 0.9166666666666666 0  0.5 0.9166666666666666 0.08333333333333333  0.6666666666666666 0.9166666666666666 0  0.6666666666666666 0.9166666666666666 0.08333333333333333  0.75 0.9166666666666666 0  0.75 0.9166666666666666 0.08333333333333333  0.8333333333333334 0.9166666666666666 0  0.8333333333333334 0.9166666666666666 0.08333333333333333  0.9166666666666666 0.9166666666666666 0  0.9166666666666666 0.9166666666666666 0.08333333333333333  1 0.9166666666666666 0  1 0.9166666666666666 0.08333333333333333  0.5833333333333334 1 0  0.5833333333333334 1 0.08333333333333333  0.5 1 0  0.5 1 0.08333333333333333  0.6666666666666666 1 0  0.6666666666666666 1 0.08333333333333333  0.75 1 0  0.75 1 0.08333333333333333  0.8333333333333334 1 0  0.8333333333333334 1 0.08333333333333333  0.9166666666666666 1 0  0.9166666666666666 1 0.08333333333333333  1 1 0  1 1 0.08333333333333333  0.5833333333333334 0.08333333333333333 0.1666666666666667  0.5833333333333334 0 0.1666666666666667  0.5 0 0.1666666666666667  0.5 0.08333333333333333 0.1666666666666667  0.6666666666666666 0.08333333333333333 0.1666666666666667  0.6666666666666666 0 0.1666666666666667  0.75 0.08333333333333333 0.1666666666666667  0.75 0 0.1666666666666667  0.8333333333333334 0.08333333333333333 0.1666666666666667  0.8333333333333334 0 0.1666666666666667  0.9166666666666666 0.08333333333333333 0.1666666666666667  0.9166666666666666 0 0.1666666666666667  1 0.08333333333333333 0.1666666666666667  1 0 0.1666666666666667  0.5833333333333334 0.1666666666666667 0.1666666666666667  0.5 0.1666666666666667 0.1666666666666667  0.6666666666666666 0.1666666666666667 0.1666666666666667  0.75 0.1666666666666667 0.1666666666666667  0.8333333333333334 0.1666666666666667 0.1666666666666667  0.9166666666666666 0.1666666666666667 0.1666666666666667  1 0.1666666666666667 0.1666666666666667  0.5833333333333334 0.25 0.1666666666666667  0.5 0.25 0.1666666666666667  0.6666666666666666 0.25 0.1666666666666667  0.75 0.25 0.1666666666666667  0.8333333333333334 0.25 0.1666666666666667  0.9166666666666666 0.25 0.1666666666666667  1 0.25 0.1666666666666667  0.5833333333333334 0.3333333333333333 0.1666666666666667  0.5 0.3333333333333333 0.1666666666666667  0.6666666666666666 0.3333333333333333 0.1666666666666667  0.75 0.3333333333333333 0.1666666666666667  0.8333333333333334 0.3333333333333333 0.1666666666666667  0.9166666666666666 0.3333333333333333 0.1666666666666667  1 0.3333333333333333 0.1666666666666667  0.5833333333333334 0.4166666666666667 0.1666666666666667  0.5 0.4166666666666667 0.1666666666666667  0.6666666666666666 0.4166666666666667 0.1666666666666667  0.75 0.4166666666666667 0.1666666666666667  0.8333333333333334 0.4166666666666667 0.1666666666666667  0.9166666666666666 0.4166666666666667 0.1666666666666667  1 0.4166666666666667 0.1666666666666667  0.5833333333333334 0.5 0.1666666666666667  0.5 0.5 0.1666666666666667  0.6666666666666666 0.5 0.1666666666666667  0.75 0.5 0.1666666666666667  0.8333333333333334 0.5 0.1666666666666667  0.9166666666666666 0.5 0.1666666666666667  1 0.5 0.1666666666666667  0.5833333333333334 0.5833333333333334 0.1666666666666667  0.5 0.5833333333333334 0.1666666666666667  0.6666666666666666 0.5833333333333334 0.1666666666666667  0.75 0.5833333333333334 0.1666666666666667  0.8333333333333334 0.5833333333333334 0.1666666666666667  0.9166666666666666 0.5833333333333334 0.1666666666666667  1 0.5833333333333334 0.1666666666666667  0.5833333333333334 0.6666666666666666 0.1666666666666667  0.5 0.6666666666666666 0.1666666666666667  0.6666666666666666 0.6666666666666666 0.1666666666666667  0.75 0.6666666666666666 0.1666666666666667  0.8333333333333334 0.6666666666666666 0.1666666666666667  0.9166666666666666 0.6666666666666666 0.1666666666666667  1 0.6666666666666666 0.1666666666666667  0.58333333333333
[...]
<PointData  Vectors="f_18"> 
<DataArray  type="Float64"  Name="f_18"  NumberOfComponents="3" format="ascii">5.8534018876432586e-02 3.1572719339361080e-02 3.1572719339361073e-02  6.8097316005354375e-02 3.2113911482641914e-02 3.2113911482641908e-02  6.7453986307068531e-02 2.7232963314702763e-02 3.2174046409247335e-02  6.6881352420703116e-02 2.7210151827965275e-02 2.7210151827965288e-02  6.7453986307068517e-02 3.2174046409247349e-02 2.7232963314702766e-02  5.7590147805898564e-02 3.1674801686906333e-02 2.6877612925626501e-02  5.7590147805898557e-02 2.6877612925626512e-02 3.1674801686906326e-02  5.6745243551193383e-02 2.6846485900663245e-02 2.6846485900663242e-02  7.8106811834142933e-02 3.2454050250149247e-02 3.2454050250149212e-02  7.7647839251876322e-02 2.7408635081568100e-02 3.2484459141085865e-02  7.7240561122809581e-02 2.7393744260672506e-02 2.7393744260672509e-02  7.7647839251876336e-02 3.2484459141085872e-02 2.7408635081568097e-02  8.8484406192038956e-02 3.2694057073130396e-02 3.2694057073130348e-02  8.8123319242419451e-02 2.7511734503070265e-02 3.2702703437628683e-02  8.7801679693187779e-02 2.7504229125418795e-02 2.7504229125418795e-02  8.8123319242419437e-02 3.2702703437628683e-02 2.7511734503070269e-02  9.9149384898061868e-02 3.2909461723016648e-02 3.2909461723016689e-02  9.8825072340177358e-02 2.7619890506804641e-02 3.2902423578829158e-02  9.8532168053525770e-02 2.7619472056341264e-02 2.7619472056341274e-02  9.8825072340177372e-02 3.2902423578829151e-02 2.7619890506804658e-02  1.1001177208447903e-01 3.3154900468774867e-02 3.3154900468774902e-02  1.0968994298970845e-01 2.7793549088469961e-02 3.3140182224543166e-02  1.0939170086740548e-01 2.7799929450055643e-02 2.7799929450055629e-02  1.0968994298970845e-01 3.3140182224543131e-02 2.7793549088469992e-02  1.2097326706158518e-01 3.3453680932247661e-02 3.3453680932247709e-02  1.2064189916974997e-01 2.8088356089192995e-02 3.3437736260299548e-02  1.2032082446701695e-01 2.8088230804719637e-02 2.8088230804719654e-02  1.2064189916974996e-01 3.3437736260299528e-02 2.8088356089193047e-02  6.6574166669607360e-02 2.2186936580674985e-02 3.2377526182312925e-02  6.6062577301334469e-02 2.2085102000308183e-02 2.7375183480160790e-02  5.6427014818138228e-02 2.1948032264544025e-02 3.1997616597610141e-02  5.5650172181687822e-02 2.1798776072709074e-02 2.7110944486751200e-02  7.6971431011327127e-02 2.2255857524749602e-02 3.2598158195508584e-02  7.6616268458027548e-02 2.2194255985449156e-02 2.7485308191589886e-02  8.7580468458255845e-02 2.2265170334600983e-02 3.2748594904207451e-02  8.7303298240744051e-02 2.2237247152514218e-02 2.7542050929114156e-02  9.8360847415426389e-02 2.2292811966823728e-02 3.2896500051568162e-02  9.8107791176067868e-02 2.2293559992862491e-02 2.7617707259763376e-02  1.0926624380046535e-01 2.2405587638859453e-02 3.3092698897170418e-02  1.0900776750892772e-01 2.2429789801732967e-02 2.7766494598492890e-02  1.2023675981991069e-01 2.2695787604089985e-02 3.3348745070439161e-02  1.1996130671738951e-01 2.2716434931410557e-02 2.8020029774377665e-02  6.5651028397112315e-02 1.6935761338752613e-02 3.2664452802148393e-02  6.5209137201111350e-02 1.6795027964133180e-02 2.7641488721650689e-02  5.5286418774804218e-02 1.6759375594157539e-02 3.2432296958868206e-02  5.4585410989154509e-02 1.6557608291016369e-02 2.7514028882052271e-02  7.6227453735428038e-02 1.6954514676891221e-02 3.2766859176747286e-02  7.5933165640825973e-02 1.6867649821722626e-02 2.7642525809739454e-02  8.6967276763926279e-02 1.6919584989066743e-02 3.2823528758960961e-02  8.6743349889238305e-02 1.6878941748468931e-02 2.7614099530346110e-02  9.7832022693652834e-02 1.6904263873835576e-02 3.2894804839151519e-02  9.7628332405327964e-02 1.6903492541915435e-02 2.7622419614657112e-02  1.0878386641983238e-01 1.6976136361361291e-02 3.3022584188829501e-02  1.0857729799612052e-01 1.7008395681308672e-02 2.7715161214855691e-02  1.1977942899974867e-01 1.7242876421460909e-02 3.3206804159138736e-02  1.1956716615852628e-01 1.7277164364816733e-02 2.7918697032024164e-02  6.4863935186638744e-02 1.1506897053540178e-02 3.2942521482867228e-02  6.4485438493813121e-02 1.1377649587781424e-02 2.7907498934666718e-02  5.4364113922188255e-02 1.1374705008769021e-02 3.2837662002830649e-02  5.3729253656443036e-02 1.1193395723985623e-02 2.7900910663970796e-02  7.5568447711010817e-02 1.1513281725505425e-02 3.2936056784162566e-02  7.5331136127932602e-02 1.1431881485756402e-02 2.7805453848271027e-02  8.6409400244415360e-02 1.1475735334135394e-02 3.2901994360702999e-02  8.6236538541963698e-02 1.1436497379264013e-02 2.7692354330740705e-02  9.7342144544161360e-02 1.1452851183892167e-02 3.2895604068700512e-02  9.7186792396894359e-02 1.1450559445719969e-02 2.7630854513129698e-02  1.0833240712043297e-01 1.1500539919416287e-02 3.2951299796147859e-02  1.0817708676908448e-01 1.1529432566347905e-02 2.7664337867229535e-02  1.1935335550089114e-01 1.1711474530928330e-02 3.3060575560600221e-02  1.1920226415019113e-01 1.1745682378430279e-02 2.7817917732132408e-02  6.4335644286145077e-02 5.9594816498995673e-03 3.3139260532087732e-02  6.4000744907105750e-02 5.8808007091572072e-03 2.8097095053182419e-02  5.3768776169607173e-02 5.8771884661441200e-03 3.3117226686629052e-02  5.3177349320152570e-02 5.7686291708383859e-03 2.8169840584964242e-02  7.5112702565569511e-02 5.9711236704138044e-03 3.3058397319956280e-02  7.4915720580127798e-02 5.9206450012438752e-03 2.7924216902164772e-02  8.6014696426588877e-02 5.9576783019135923e-03 3.2960008499564715e-02  8.5878732385533285e-02 5.9324835051131897e-03 2.7750841310484879e-02  9.6989721186886604e-02 5.9520672881864922e-03 3.2896860041850461e-02  9.6869746076119700e-02 5.9492193856832401e-03 2.7638240698497858e-02  1.0800463103521225e-01 5.9854167188652897e-03 3.2898864268135111e-02  1.0788676023145466e-01 6.0019193469037337e-03 2.7627755513231787e-02  1.1904519116754864e-01 6.1095072241812475e-03 3.2952990242550759e-02  1.1893783523731585e-01 6.1315573755475385e-03 2.7745109884355110e-02  6.4132814646104430e-02 3.5482773052961022e-04 3.3213370909691710e-02  6.3813963638739965e-02 3.4682626642351010e-04 2.8167333918602780e-02  5.3547810948689586e-02 3.3208537797403583e-04 3.3221298446438216e-02  5.2971516395271624e-02 3.2150580585330670e-04 2.8268323661672583e-02  7.4932259008864396e-02 3.7701441662348046e-04 3.3104977128874571e-02  7.4750589939866677e-02 3.7125729140404011e-04 2.7968718502041804e-02  8.5854204732193254e-02 3.9989138702107489e-04 3.2982410491837248e-02  8.5732511179710744e-02 3.9599404336786587e-04 2.7773080468322050e-02  9.6843396629851822e-02 4.2383014168318411e-04 3.2897628445253610e-02  9.6737215957623954e-02 4.2137065361810730e-04 2.7641295831387292e-02  1.0786686627231552e-01 4.4729044158764550e-04 3.2878879257309167e-02  1.0776345514873707e-01 4.4661873639467492e-04 2.7614042608782155e-02  1.1891635872610649e-01 4.6676183983781848e-04 3.2911936820162253e-02  1.1882518162485881e-01 4.6963915056805384e-04 2.7717733294765748e-02  6.4275644361916184e-02 -5.2514425634793676e-03 3.3151299398650788e-02  6.3943131670589015e-02 -5.1882522208090811e-03 2.8104245253597396e-02  5.3712995052450301e-02 -5.2131510926556436e-03 3.3134615672876844e-02  5.3122615121378114e-02 -5.1256810497229922e-03 2.8180131957953842e-02  7.5050960565291161e-02 -5.2191667550628420e-03 3.3065868760450402e-02  7.4856838910343976e-02 -5.1794919772719739e-03 2.7928792964025808e-02  8.5952749246488699e-02 -5.1599603166412062e-03 3.2963809603158097e-02  8.5819698498584521e-02 -5.1418148663790048e-03 2.7753317332226874e-02  9.6928037436376291e-02 -5.1062426489962053e-03 3.2897539278610027e-02  9.6810902494222792e-02 -5.1076487365979834e-03 2.7638778496147012e-02  1.0794347270394322e-01 -5.0917265916770047e-03 3.2896264288695388e-02  1.0782815975064326e-01 -5.1093465025004968e-03 2.7626146142891422e-02  1.1898906847947495e-01 -5.1749842294403865e-03 3.2947383631382623e-02  1.1888285681658622e-01 -5.1920431648976055e-03 2.7741844975857920e-02  6.4742621286041122e-02 -1.0804598368909906e-02 3.2964601488743674e-02  6.4369549728092348e-02 -1.0688485873522629e-02 2.7920501654285730e-02  5.4249514070711595e-02 -1.0712971735688699e-02 3.2870771429455915e-02  5.3618142055563062e-02 -1.0551365236962340e-02 2.7920257464496945e-02  7.5445053480256971e-02 -1.0767648006833946e-02 3.2949206197375090e-02  7.5213600586989740e-02 -1.0694489514666554e-02 2.7813467599204181e-02  8.6286441904012079e-02 -1.0683867642230635e-02 3.2908263838208454e-02  8.6119259124299991e-02 -1.0649298394645680e-02 2.7696416298216512e-02  9.7220324315625037e-02 -1.0612142360123950e-02 3.2896312802250124e-02  9.7070336242644883e-02 -1.0612085348755251e-02 2.7631386695353428e-02  1.0821192434934679e-01 -1.0609494013759959e-02 3.2946443537201747e-02  1.0806134668284005e-01 -1.0638741501724438e-02 2.7661046684849935e-02  1.1924176330458937e-01 -1.0773708467782582e-02 3.3050500206914114e-02  1.1909261897775140e-01 -1.0805174105704432e-02 2.7811599970657644e-02  6.5467309249182898e-02 -1.6245050054825266e-02 3.2691397890086474e-02  6.5034715720350189e-02 -1.6111320957384545e-02 2.7657349391249610e-02  5.5108014038321558e-02 -1.6107160107181554e-02 3.2475876180090665e-02  5.4415300268232450e-02 -1.5919050908451287e-02 2.7539316150812444e-02  7.6043597715636777e-02 -1.6219102301556272e-02 3.2781586214522040e-02  7.5758132356013225e-02 -1.6135228656760325e-02 2.7651532527891858e-02  8.6785422515659905e-02 -1.6135947056756170e-02 3.2829493989688603e-02  8.6569496346887140e-02 -1.6095839934549348e-02 2.7617972071210199e-02  9.7652601520021101e-02 -1.6070378226259795e-02 3.2894120776926557e-02  9.7456179385807487e-02 -1.6068687717986585e-02 2.7621870323387848e-02  1.0860688379813251e-01 -1.6089097985218556e-02 3.3015741484994726e-02  1.0840667379105820e-01 -1.6120393947073802e-02 2.7709972279523046e-02  1.1961265269621361e-01 -1.6299270879096786e-02 3.3193994339118807e-02  1.1940306814155979e-01 -1.6334362397158683e-02 2.7909621339185654e-02  6.6330042709620882e-02 -2.1512496361768680e-02 3.2399195852388929e-02  6.5832005434033600e-02 -2.1407151775767342e-02 2.7387908872817460e-02  5.6182185411346973e-02 -2.1316386628474532e-02 3.2038310815867874e-02  5.5420685383206277e-02 -2.1167741006568097e-02 2.7134322510441882e-02  7.6730535277242495e-02 -2.1531744023694122e-02 3.2607886957954864e-02  7.6386674217355718e-02 -2.1465491874819925e-02 2.7491322366430263e-02  8.7342978915539687e-02 -2.1488976272765335e-02 3.2750538644204436e-02  8.7075280054716847e-02 -2.1456452851762470e-02 2.7543383356312293e-02  9.8126338074357583e-02 -2.1464146074570260e-02 3.2892587531079202e-02  9.7881518453258806e-02 -2.1460751123525204e-02 2.7614924627687294e-02  1.0903479339783205e-01 -2.1522073096187755e-02 3.3083579661734190e-02  1.0878372493298603e-01 -2.1544071752131893e-02 2.7759275197290562e-02  1.2001324006884458e-01 -2.1744809158294014e-02 3.3334753431923950e-02  1.1974247349153044e-01 -2.1770084111799988e-02 2.8008747442576018e-02  6.7154208896059511e-02 -2.6567990234107618e-02 3.2178595329138332e-02  6.6599267587899663e-02 -2.6531936499045845e-02 2.7212699346756242e-02  5.7281816515826776e-02 -2.6265542036975311e-02 3.1690434320373023e-02  5.6461744591565603e-02 -2.6219821600097580e-02 2.6854306958080797e-02  7.7354222329419978e-02 -2.6688798638245512e-02 3.2483458506129333e-02  7.6959777931143128e-02 -2.6663492645261525e-02 2.7393443732408047e-02  8.7833755083909087e-02 -2.6737224923015172e-02 3.2698350707231490e-02  8.7521795237586270e-02 -2.6721945860454937e-02 2.7501793692668614e-02  9.8537947313356397e-02 -2.6790714118415174e-02 3.2894894140282821e-02  9.8252595711509988e-02 -2.6785010008392174e-02 2.7614656490075169e-02  1.0940477667975762e-01 -2.6908048989929545e-02 3.3128972620209571e-02  1.0911314995118251e-01 -2.6912713147465708e-02 2.7791890698857590e-02  1.2035908817237537e-01 -2.7133683943008198e-02 3.3424174221989143e-02  1.2004561450450148e-01 -2.7137947111618387e-02 2.8076277792481542e-02  6.7728740455517952e-02 -3.1427250860988187e-02 3.2099836883784011e-02  6.7132397841465893e-02 -3.1482012172432954e-02 2.7234736408919227e-02  5.8142770988210017e-02 -3.0937119703306593e-02 3.1559862351704826e-02  5.7279609742470684e-02 -3.1031245495022636e-02 2.6879287344950521e-02  7.7750213758639775e-02 -3.1716873677158079e-02 3.2441436895076281e-02  7.7321444159970859e-02 -3.1743438058835713e-02 2.7409466277811330e-02  8.8134747265325109e-02 -3.1906912301731531e-02 3.2682602650740508e-02  8.7795179270559853e-02 -3.1912609924026961e-02 2.7510732328815977e-02  9.8805918181030156e-02 -3.2071759313610296e-02 3.2897538181318811e-02  9.8496656519634157e-02 -3.2062263512092772e-02 2.7616147420433067e-02  1.0967651854695071e-01 -3.2264176037178238e-02 3.3141746923268239e-02  1.0936049395253186e-01 -3.2247199373217864e-02 2.7786308462649359e-02  1.2063381146637941e-01 -3.2507059836402022e-02 3.3442037955988345e-02  1.2030247383523333e-01 -3.2488980811612389e-02 2.8074070209907008e-02  6.6062577301334455e-02 2.7375183480160784e-02 2.2085102000308183e-02  6.6574166669607346e-02 3.2377526182312925e-02 2.2186936580674978e-02  5.6427014818138221e-02 3.1997616597610148e-02 2.1948032264544025e-02  5.5650172181687815e-02 2.7110944486751203e-02 2.1798776072709070e-02  7.6616268458027548e-02 2.7485308191589890e-02 2.2194255985449177e-02  7.6971431011327113e-02 3.2598158195508577e-02 2.2255857524749619e-02  8.7303298240744051e-02 2.7542050929114166e-02 2.2237247152514215e-02  8.7580468458255845e-02 3.2748594904207465e-02 2.2265170334600987e-02  9.8107791176067854e-02 2.7617707259763365e-02 2.2293559992862512e-02  9.8360847415426375e-02 3.2896500051568148e-02 2.2292811966823735e-02  1.0900776750892772e-01 2.7766494598492886e-02 2.2429789801732956e-02  1.0926624380046530e-01 3.3092698897170439e-02 2.2405587638859480e-02  1.1996130671738951e-01 2.8020029774377619e-02 2.2716434931410578e-02  1.2023675981991065e-01 3.3348745070439161e-02 2.2695787604089981e-02  6.5260704277146461e-02 2.2198421648799007e-02 2.2198421648799000e-02  5.4559084133242841e-02 2.1979694310068416e-02 2.1979694310068430e-02  7.6014389539368343e-02 2.2257997549112042e-02 2.2257997549112046e-02  8.6830175468601181e-02 2.2265327672759287e-02 2.2265327672759287e-02  9.7711931191905743e-02 2.2295601289660658e-02 2.2295601289660662e-02  1.0865777785217598e-01 2.2409127503517711e-02 2.2409127503517725e-02  1.1964244142604835e-01 2.2664661072557178e-02 2.2664661072557199e-02  6.4405222051096098e-02 1.6863627847325143e-02 2.2419189503571097e-02  5.3477770034899043e-02 1.6666918690637082e-02 2.2310029164063470e-02  7.5338693599873385e-02 1.6906615983982964e-02 2.2390495728533372e-02  8.6284191302497190e-02 1.6897161474001741e-02 2.2328839489834353e-02  9.7252449340859415e-02 1.6906703033455893e-02 2.2305047159812096e-02  1.0825483688754978e-01 1.6996598455937432e-02 2.2374563264552391e-02  1.1928606468908712e-01 1.7238885063929853e-02 2.2594064177179629e-02  6.3679447992924867e-02 1.1410940735321966e-02 2.2648610205541157e-02  5.2610006216593189e-02 1.1246477409256364e-02 2.2640873264605628e-02  7.4741598546765237e-02 1.1450832807130999e-02 2.2532867010697347e-02  8.5787636791102073e-02 1.1445719976112510e-02 2.2399929714695628e-02  9.6826239572351869e-02 1.1452779913369966e-02 2.2318503077348412e-02  1.0787655046202864e-01 1.1523115287535501e-02 2.2341738823740947e-02  1.1895300850016435e-01 1.1720002258564991e-02 2.2528336014569963e-02  6.3194863583367789e-02 5.8917173380154831e-03 2.2814855801240624e-02  5.2052945449223384e-02 5.7865775983560047e-03 2.2875069798861794e-02  7.4330287380406035e-02 5.9266082447781299e-03 2.2638201167735753e-02  8.5437075916268229e-02 5.9352722869052731e-03 2.2453769786305446e-02  9.6519547502765687e-02 5.9497489928351521e-03 2.2329797674159213e-02  1.0760086052328939e-01 5.9988614385690633e-03 2.2318841786822745e-02  1.1871025604897520e-01 6.1182348502414443e-03 2.2482433851740091e-02  6.3008977691674267e-02 3.4444379054083716e-04 2.2876922331689777e-02  5.1846163653156731e-02 3.1839453799426090e-04 2.2961577403320114e-02  7.4167382385536412e-02 3.6945182933382885e-04 2.2677897254218433e-02  8.5294054917541814e-02 3.9462731346880093e-04 2.2474249982080342e-02  9.6391133793732778e-02 4.2033214212813775e-04 2.2334166777005081e-02  1.0748301373140237e-01 4.4581394917591011e-04 2.2310133552074327e-02  1.1860572131864640e-01 4.6864311020625675e-04 2.2465106634840033e-02  6.3138982651317441e-02 -5.2035118807642880e-03 2.2821460815270072e-02  5.1999526041613030e-02 -5.1492482903878123e-03 2.2884655291801229e-02  7.4273243464770433e-02 -5.1887562383680303e-03 2.2642259001930079e-02  8.5379744078967618e-02 -5.1470975636917563e-03 2.2455703785280130e-02  9.6462071304081951e-02 -5.1100810173947001e-03 2.2329799997041894e-02  1.0754321684983932e-01 -5.1078495308123544e-03 2.2316959921212399e-02  1.1865663134008568e-01 -5.1807902826430871e-03 2.2479277937865139e-02  6.3567008933083355e-02 -1.0725325138677282e-02 2.2660687344732280e-02  5.2501759515195000e-02 -1.0608766085615264e-02 2.2659218508951948e-02  7.4627593313384297e-02 -1.0716173877688013e-02 2.2539937696027825e-02  8.5673635024551373e-02 -1.0660551374365916e-02 2.2403016273937558e-02  9.6712533171331647e-02 -1.0615848230983089e-02 2.2318081997072171e-02  1.0776288236304458e-01 -1.0633903314265459e-02 2.2337915632458145e-02  1.1884609086528186e-01 -1.0781759389444994e-02 2.2522011179318208e-02  6.4235934613536008e-02 -1.6183980303967466e-02 2.2433823210595050e-02  5.3312343199397108e-02 -1.6033160317631707e-02 2.2334319461452760e-02  7.5168715480805337e-02 -1.6177123984838830e-02 2.2398242858153731e-02  8.6115042796121741e-02 -1.6116017830264982e-02 2.2331506216412236e-02  9.7084493700639651e-02 -1.6073259881708386e-02 2.2303418525160681e-02  1.0808782389194964e-01 -1.6110078901484155e-02 2.2368743464680797e-02  1.1912630581964652e-01 -1.6298445680407479e-02 2.2584624911986099e-02  6.5037366969514815e-02 -2.1527681689270144e-02 2.2210195290622715e-02  5.4336611992245550e-02 -2.1359957840017103e-02 2.2002661713615024e-02  7.5791589059185538e-02 -2.1533415825068715e-02 2.2263003097672467e-02  8.6608330777999815e-02 -2.1486866767107763e-02 2.2265769442020845e-02  9.7491344171065794e-02 -2.1464215529415701e-02 2.2292193487875603e-02  1.0843936632275421e-01 -2.1524939606039791e-02 2.2401570893131134e-02  1.1942983267732990e-01 -2.1720254965106902e-02 2.2652582285946930e-02  6.5797298376064281e-02 -2.6699993888445107e-02 2.2088995641941278e-02  5.5386207695351693e-02 -2.6491644793870547e-02 2.1810036748633653e-02  7.6348912779689068e-02 -2.6756285484233110e-02 2.2194597400863238e-02  8.7034064670513639e-02 -2.6760427305057205e-02 2.2235277205659633e-02  9.7836988904176331e-02 -2.6784065276266152e-02 2.2289336971729738e-02  1.0873746972588925e-01 -2.6880779025589701e-02 2.2421912440237345e-02  1.1969400273619772e-01 -2.7071702966534470e-02 2.2702534204346099e-02  6.6278164118702049e-02 -3.1681295109535546e-02 2.2189388655793688e-02  5.6148411371235718e-02 -3.1347412856558149e-02 2.1953032400205418e-02  7.6664356489793986e-02 -3.1854529613422625e-02 2.2257304158536356e-02  8.7266878461493252e-02 -3.1957009438041105e-02 2.2265428453523008e-02  9.8043509031069398e-02 -3.2055810781901908e-02 2.2291280037376574e-02  1.0894634593023685e-01 -3.2200449067723041e-02 2.2399990442541987e-02  1.1991031026322214e-01 -3.2405504380170293e-02 2.2677364785057535e-02  6.5209137201111336e-02 2.7641488721650679e-02 1.6795027964133177e-02  6.5651028397112315e-02 3.2664452802148400e-02 1.6935761338752606e-02  5.5286418774804204e-02 3.2432296958868206e-02 1.6759375594157546e-02  5.4585410989154502e-02 2.7514028882052257e-02 1.6557608291016369e-02  7.5933165640825973e-02 2.7642525809739450e-02 1.6867649821722633e-02  7.6227453735428052e-02 3.2766859176747279e-02 1.6954514676891221e-02  8.6743349889238278e-02 2.7614099530346124e-02 1.6878941748468941e-02  8.6967276763926293e-02 3.2823528758960961e-02 1.6919584989066757e-02  9.7628332405327950e-02 2.7622419614657109e-02 1.6903492541915446e-02  9.7832022693652820e-02 3.2