<?xml version="1.0"?>
<VTKFile type="UnstructuredGrid"  version="0.1"  >
<UnstructuredGrid>
<Piece  NumberOfPoints="629" NumberOfCells="2557">
<Points>
<DataArray  type="Float64"  NumberOfComponents="3"  format="ascii">0.5 0 0.4166666666666667  0.5833333333333334 0 0.4166666666666667  0.5833333333333334 0 0.5  0.5833333333333334 0.08333333333333333 0.5  0.5 0 0.5  0.5 0.08333333333333333 0.5  0.6666666666666666 0 0.5  0.6666666666666666 0.08333333333333333 0.5  0.5833333333333334 0.08333333333333333 0.5833333333333334  0.5833333333333334 0 0.5833333333333334  0.5 0 0.5833333333333334  0.5 0.08333333333333333 0.5833333333333334  0.6666666666666666 0.08333333333333333 0.5833333333333334  0.6666666666666666 0 0.5833333333333334  0.75 0 0.5  0.75 0.08333333333333333 0.5  0.75 0.08333333333333333 0.5833333333333334  0.75 0 0.5833333333333334  0.8333333333333334 0 0.5  0.8333333333333334 0.08333333333333333 0.5  0.8333333333333334 0.08333333333333333 0.5833333333333334  0.8333333333333334 0 0.5833333333333334  0.9166666666666666 0 0.5  0.9166666666666666 0.08333333333333333 0.5  0.9166666666666666 0.08333333333333333 0.5833333333333334  0.9166666666666666 0 0.5833333333333334  1 0 0.5  1 0.08333333333333333 0.5  1 0.08333333333333333 0.5833333333333334  1 0 0.5833333333333334  0.5833333333333334 0.1666666666666667 0.5  0.5833333333333334 0.1666666666666667 0.5833333333333334  0.5 0.1666666666666667 0.5  0.5 0.1666666666666667 0.5833333333333334  0.6666666666666666 0.1666666666666667 0.5  0.6666666666666666 0.1666666666666667 0.5833333333333334  0.75 0.1666666666666667 0.5  0.75 0.1666666666666667 0.5833333333333334  0.8333333333333334 0.1666666666666667 0.5  0.8333333333333334 0.1666666666666667 0.5833333333333334  0.9166666666666666 0.1666666666666667 0.5  0.9166666666666666 0.1666666666666667 0.5833333333333334  1 0.1666666666666667 0.5  1 0.1666666666666667 0.5833333333333334  0.5833333333333334 0.25 0.5  0.5833333333333334 0.25 0.5833333333333334  0.5 0.25 0.5  0.5 0.25 0.5833333333333334  0.6666666666666666 0.25 0.5  0.6666666666666666 0.25 0.5833333333333334  0.75 0.25 0.5  0.75 0.25 0.5833333333333334  0.8333333333333334 0.25 0.5  0.8333333333333334 0.25 0.5833333333333334  0.9166666666666666 0.25 0.5  0.9166666666666666 0.25 0.5833333333333334  1 0.25 0.5  1 0.25 0.5833333333333334  0.5833333333333334 0.3333333333333333 0.5  0.5833333333333334 0.3333333333333333 0.5833333333333334  0.5 0.3333333333333333 0.5  0.5 0.3333333333333333 0.5833333333333334  0.6666666666666666 0.3333333333333333 0.5  0.6666666666666666 0.3333333333333333 0.5833333333333334  0.75 0.3333333333333333 0.5  0.75 0.3333333333333333 0.5833333333333334  0.8333333333333334 0.3333333333333333 0.5  0.8333333333333334 0.3333333333333333 0.5833333333333334  0.9166666666666666 0.3333333333333333 0.5  0.9166666666666666 0.3333333333333333 0.5833333333333334  1 0.3333333333333333 0.5  1 0.3333333333333333 0.5833333333333334  0.5833333333333334 0.4166666666666667 0.5  0.5833333333333334 0.4166666666666667 0.5833333333333334  0.5 0.4166666666666667 0.5  0.5 0.4166666666666667 0.5833333333333334  0.6666666666666666 0.4166666666666667 0.5  0.6666666666666666 0.4166666666666667 0.5833333333333334  0.75 0.4166666666666667 0.5  0.75 0.4166666666666667 0.5833333333333334  0.8333333333333334 0.4166666666666667 0.5  0.8333333333333334 0.4166666666666667 0.5833333333333334  0.9166666666666666 0.4166666666666667 0.5  0.9166666666666666 0.4166666666666667 0.5833333333333334  1 0.4166666666666667 0.5  1 0.4166666666666667 0.5833333333333334  0.5833333333333334 0.5 0.5  0.5833333333333334 0.5 0.5833333333333334  0.5 0.5 0.5  0.5 0.5 0.5833333333333334  0.6666666666666666 0.5 0.5  0.6666666666666666 0.5 0.5833333333333334  0.75 0.5 0.5  0.75 0.5 0.5833333333333334  0.8333333333333334 0.5 0.5  0.8333333333333334 0.5 0.5833333333333334  0.9166666666666666 0.5 0.5  0.9166666666666666 0.5 0.5833333333333334  1 0.5 0.5  1 0.5 0.5833333333333334  0.5833333333333334 0.5833333333333334 0.5  0.5833333333333334 0.5833333333333334 0.5833333333333334  0.5 0.5833333333333334 0.5  0.5 0.5833333333333334 0.5833333333333334  0.6666666666666666 0.5833333333333334 0.5  0.6666666666666666 0.5833333333333334 0.5833333333333334  0.75 0.5833333333333334 0.5  0.75 0.5833333333333334 0.5833333333333334  0.8333333333333334 0.5833333333333334 0.5  0.8333333333333334 0.5833333333333334 0.5833333333333334  0.9166666666666666 0.5833333333333334 0.5  0.9166666666666666 0.5833333333333334 0.5833333333333334  1 0.5833333333333334 0.5  1 0.5833333333333334 0.5833333333333334  0.5833333333333334 0.6666666666666666 0.5  0.5833333333333334 0.6666666666666666 0.5833333333333334  0.5 0.6666666666666666 0.5  0.5 0.6666666666666666 0.5833333333333334  0.6666666666666666 0.6666666666666666 0.5  0.6666666666666666 0.6666666666666666 0.5833333333333334  0.75 0.6666666666666666 0.5  0.75 0.6666666666666666 0.5833333333333334  0.8333333333333334 0.6666666666666666 0.5  0.8333333333333334 0.6666666666666666 0.5833333333333334  0.9166666666666666 0.6666666666666666 0.5  0.9166666666666666 0.6666666666666666 0.5833333333333334  1 0.6666666666666666 0.5  1 0.6666666666666666 0.5833333333333334  0.5833333333333334 0.75 0.5  0.5833333333333334 0.75 0.5833333333333334  0.5 0.75 0.5  0.5 0.75 0.5833333333333334  0.6666666666666666 0.75 0.5  0.6666666666666666 0.75 0.5833333333333334  0.75 0.75 0.5  0.75 0.75 0.5833333333333334  0.8333333333333334 0.75 0.5  0.8333333333333334 0.75 0.5833333333333334  0.9166666666666666 0.75 0.5  0.9166666666666666 0.75 0.5833333333333334  1 0.75 0.5  1 0.75 0.5833333333333334  0.5833333333333334 0.8333333333333334 0.5  0.5833333333333334 0.8333333333333334 0.5833333333333334  0.5 0.8333333333333334 0.5  0.5 0.8333333333333334 0.5833333333333334  0.6666666666666666 0.8333333333333334 0.5  0.6666666666666666 0.8333333333333334 0.5833333333333334  0.75 0.8333333333333334 0.5  0.75 0.8333333333333334 0.5833333333333334  0.8333333333333334 0.8333333333333334 0.5  0.8333333333333334 0.8333333333333334 0.5833333333333334  0.9166666666666666 0.8333333333333334 0.5  0.9166666666666666 0.8333333333333334 0.5833333333333334  1 0.8333333333333334 0.5  1 0.8333333333333334 0.5833333333333334  0.5833333333333334 0.9166666666666666 0.5  0.5833333333333334 0.9166666666666666 0.5833333333333334  0.5 0.9166666666666666 0.5  0.5 0.9166666666666666 0.5833333333333334  0.6666666666666666 0.9166666666666666 0.5  0.6666666666666666 0.9166666666666666 0.5833333333333334  0.75 0.9166666666666666 0.5  0.75 0.9166666666666666 0.5833333333333334  0.8333333333333334 0.9166666666666666 0.5833333333333334  0.9166666666666666 0.9166666666666666 0.5833333333333334  1 0.9166666666666666 0.5833333333333334  0.5833333333333334 1 0.5  0.5833333333333334 1 0.5833333333333334  0.5 1 0.5  0.5 1 0.5833333333333334  0.6666666666666666 1 0.5  0.6666666666666666 1 0.5833333333333334  0.75 1 0.5  0.75 1 0.5833333333333334  0.8333333333333334 1 0.5833333333333334  0.5833333333333334 0.08333333333333333 0.6666666666666666  0.5833333333333334 0 0.6666666666666666  0.5 0 0.6666666666666666  0.5 0.08333333333333333 0.6666666666666666  0.6666666666666666 0.08333333333333333 0.6666666666666666  0.6666666666666666 0 0.6666666666666666  0.75 0.08333333333333333 0.6666666666666666  0.75 0 0.6666666666666666  0.8333333333333334 0.08333333333333333 0.6666666666666666  0.8333333333333334 0 0.6666666666666666  0.9166666666666666 0.08333333333333333 0.6666666666666666  0.9166666666666666 0 0.6666666666666666  1 0.08333333333333333 0.6666666666666666  1 0 0.6666666666666666  0.5833333333333334 0.1666666666666667 0.6666666666666666  0.5 0.1666666666666667 0.6666666666666666  0.6666666666666666 0.1666666666666667 0.6666666666666666  0.75 0.1666666666666667 0.6666666666666666  0.8333333333333334 0.1666666666666667 0.6666666666666666  0.9166666666666666 0.1666666666666667 0.6666666666666666  1 0.1666666666666667 0.6666666666666666  0.5833333333333334 0.25 0.6666666666666666  0.5 0.25 0.6666666666666666  0.6666666666666666 0.25 0.6666666666666666  0.75 0.25 0.6666666666666666  0.8333333333333334 0.25 0.6666666666666666  0.9166666666666666 0.25 0.6666666666666666  1 0.25 0.6666666666666666  0.5833333333333334 0.3333333333333333 0.6666666666666666  0.5 0.3333333333333333 0.6666666666666666  0.6666666666666666 0.3333333333333333 0.6666666666666666  0.75 0.3333333333333333 0.6666666666666666  0.8333333333333334 0.3333333333333333 0.6666666666666666  0.9166666666666666 0.3333333333333333 0.6666666666666666  1 0.3333333333333333 0.6666666666666666  0.5833333333333334 0.4166666666666667 0.6666666666666666  0.5 0.4166666666666667 0.6666666666666666  0.6666666666666666 0.4166666666666667 0.6666666666666666  0.75 0.4166666666666667 0.6666666666666666  0.8333333333333334 0.4166666666666667 0.6666666666666666  0.9166666666666666 0.4166666666666667 0.6666666666666666  1 0.4166666666666667 0.6666666666666666  0.5833333333333334 0.5 0.6666666666666666  0.5 0.5 0.6666666666666666  0.6666666666666666 0.5 0.6666666666666666  0.75 0.5 0.6666666666666666  0.8333333333333334 0.5 0.6666666666666666  0.9166666666666666 0.5 0.6666666666666666  1 0.5 0.6666666666666666  0.5833333333333334 0.5833333333333334 0.6666666666666666  0.5 0.5833333333333334 0.6666666666666666  0.6666666666666666 0.5833333333333334 0.6666666666666666  0.75 0.5833333333333334 0.6666666666666666  0.8333333333333334 0.5833333333333334 0.6666666666666666  0.9166666666666666 0.5833333333333334 0.6666666666666666  1 0.5833333333333334 0.6666666666666666  0.5833333333333334 0.6666666666666666 0.6666666666666666  0.5 0.6666666666666666 0.6666666666666666  0.6666666666666666 0.6666666666666666 0.6666666666666666  0.75 0.6666666666666666 0.6666666666666666  0.8333333333333334 0.6666666666666666 0.6666666666666666  0.9166666666666666 0.6666666666666666 0.6666666666666666  1 0.6666666666666666 0.6666666666666666  0.5833333333333334 0.75 0.6666666666666666  0.5 0.75 0.6666666666666666  0.6666666666666666 0.75
[...]
<PointData  Vectors="f_18"> 
<DataArray  type="Float64"  Name="f_18"  NumberOfComponents="3" format="ascii">5.3768776169607110e-02 3.3117226686629038e-02 5.8771884661441304e-03  6.4335644286145049e-02 3.3139260532087732e-02 5.9594816498995526e-03  6.4132814646104402e-02 3.3213370909691675e-02 3.5482773052961217e-04  6.3813963638739951e-02 2.8167333918602759e-02 3.4682626642351601e-04  5.3547810948689580e-02 3.3221298446438195e-02 3.3208537797403692e-04  5.2971516395271603e-02 2.8268323661672569e-02 3.2150580585331060e-04  7.4932259008864369e-02 3.3104977128874544e-02 3.7701441662348458e-04  7.4750589939866649e-02 2.7968718502041801e-02 3.7125729140404857e-04  6.3943131670589015e-02 2.8104245253597379e-02 -5.1882522208090819e-03  6.4275644361916170e-02 3.3151299398650774e-02 -5.2514425634793659e-03  5.3712995052450321e-02 3.3134615672876823e-02 -5.2131510926556497e-03  5.3122615121378093e-02 2.8180131957953842e-02 -5.1256810497229931e-03  7.4856838910343962e-02 2.7928792964025794e-02 -5.1794919772719895e-03  7.5050960565291147e-02 3.3065868760450368e-02 -5.2191667550628351e-03  8.5854204732193226e-02 3.2982410491837214e-02 3.9989138702107907e-04  8.5732511179710744e-02 2.7773080468322026e-02 3.9599404336786284e-04  8.5819698498584493e-02 2.7753317332226860e-02 -5.1418148663789996e-03  8.5952749246488672e-02 3.2963809603158048e-02 -5.1599603166412149e-03  9.6843396629851794e-02 3.2897628445253568e-02 4.2383014168317771e-04  9.6737215957623926e-02 2.7641295831387275e-02 4.2137065361810545e-04  9.6810902494222778e-02 2.7638778496146991e-02 -5.1076487365979773e-03  9.6928037436376263e-02 3.2897539278610020e-02 -5.1062426489962226e-03  1.0786686627231548e-01 3.2878879257309153e-02 4.4729044158766800e-04  1.0776345514873709e-01 2.7614042608782120e-02 4.4661873639467243e-04  1.0782815975064326e-01 2.7626146142891383e-02 -5.1093465025004786e-03  1.0794347270394317e-01 3.2896264288695361e-02 -5.0917265916770246e-03  1.1891635872610654e-01 3.2911936820162212e-02 4.6676183983782634e-04  1.1882518162485879e-01 2.7717733294765724e-02 4.6963915056806772e-04  1.1888285681658624e-01 2.7741844975857886e-02 -5.1920431648975812e-03  1.1898906847947489e-01 3.2947383631382561e-02 -5.1749842294403431e-03  6.3008977691674267e-02 2.2876922331689774e-02 3.4444379054083196e-04  6.3138982651317413e-02 2.2821460815270055e-02 -5.2035118807642828e-03  5.1846163653156703e-02 2.2961577403320086e-02 3.1839453799424903e-04  5.1999526041613002e-02 2.2884655291801212e-02 -5.1492482903878123e-03  7.4167382385536398e-02 2.2677897254218420e-02 3.6945182933382814e-04  7.4273243464770433e-02 2.2642259001930072e-02 -5.1887562383680268e-03  8.5294054917541801e-02 2.2474249982080318e-02 3.9462731346881475e-04  8.5379744078967604e-02 2.2455703785280112e-02 -5.1470975636917372e-03  9.6391133793732736e-02 2.2334166777005053e-02 4.2033214212815716e-04  9.6462071304081951e-02 2.2329799997041856e-02 -5.1100810173947140e-03  1.0748301373140237e-01 2.2310133552074316e-02 4.4581394917590544e-04  1.0754321684983928e-01 2.2316959921212364e-02 -5.1078495308123154e-03  1.1860572131864640e-01 2.2465106634840016e-02 4.6864311020626645e-04  1.1865663134008571e-01 2.2479277937865094e-02 -5.1807902826431019e-03  6.2077478799512378e-02 1.7388674333103853e-02 3.4504478746006663e-04  6.2213908793015790e-02 1.7345312258919124e-02 -5.2559878529659012e-03  5.0654743844360577e-02 1.7416484613447095e-02 3.1962196105135533e-04  5.0816116476066292e-02 1.7357034812320236e-02 -5.2230578037344762e-03  7.3447074749259864e-02 1.7236584032552807e-02 3.6953873445474267e-04  7.3557568011967112e-02 1.7208232993903710e-02 -5.2224471199813164e-03  8.4729331071007205e-02 1.7066614393120735e-02 3.9432936635118437e-04  8.4817958650719366e-02 1.7051242838654789e-02 -5.1652170109536518e-03  9.5934633943477537e-02 1.6946703688015236e-02 4.1972158134107442e-04  9.6006941902634757e-02 1.6941986359380549e-02 -5.1154256573282758e-03  1.0710420338779084e-01 1.6933989606184727e-02 4.4473283731102844e-04  1.0716417480596867e-01 1.6937342203501980e-02 -5.1025323693606600e-03  1.1830055151413883e-01 1.7108290595421089e-02 4.6640868750825494e-04  1.1834947241371023e-01 1.7115915801954918e-02 -5.1679329567741704e-03  6.1269034599167445e-02 1.1765483011404076e-02 3.4665710153543614e-04  6.1412387453455827e-02 1.1736277449940592e-02 -5.3147644629257546e-03  4.9681483101390721e-02 1.1745563685670826e-02 3.2218661372934650e-04  4.9850829067695529e-02 1.1706079938421586e-02 -5.3039286115179234e-03  7.2792649489339140e-02 1.1676693083848324e-02 3.7025351161237738e-04  7.2908621054031411e-02 1.1657242166352713e-02 -5.2609854894401231e-03  8.4198255287371862e-02 1.1564091223888375e-02 3.9432155461647633e-04  8.4290924106205020e-02 1.1553164671152400e-02 -5.1864391753851519e-03  9.5493179452424845e-02 1.1483733079727393e-02 4.1912366387716042e-04  9.5568244877429889e-02 1.1479805266528099e-02 -5.1223991493085617e-03  1.0672846326637246e-01 1.1484805583654641e-02 4.4346787044853748e-04  1.0678997231615506e-01 1.1486066245733667e-02 -5.0986506335231096e-03  1.1799304546381739e-01 1.1637876146948233e-02 4.6397847530534839e-04  1.1804208627993085e-01 1.1641431457473596e-02 -5.1590772332095938e-03  6.0727200060984941e-02 6.0713365793877280e-03 3.4824279555621662e-04  6.0875358188069738e-02 6.0570740328234106e-03 -5.3585362425158023e-03  4.9055016269189879e-02 6.0372534525593860e-03 3.2466060296172840e-04  4.9229609780336699e-02 6.0183739905407532e-03 -5.3632188026094514e-03  7.2339298353733317e-02 6.0416818307679008e-03 3.7095217979178256e-04  7.2459296219792441e-02 6.0319003685657489e-03 -5.2901938960252994e-03  8.3820141180364557e-02 5.9957204614687117e-03 3.9426322245743827e-04  8.3915996811581794e-02 5.9899244673232545e-03 -5.2029779192350554e-03  9.5171409509304833e-02 5.9653264012388407e-03 4.1842567550571977e-04  9.5248892725038933e-02 5.9628222393502909e-03 -5.1285095810540719e-03  1.0644924005427282e-01 5.9784977017622804e-03 4.4213822087433208e-04  1.0651241442628057e-01 5.9784202126906272e-03 -5.0971194237199079e-03  1.1776245694103317e-01 6.0746593092747669e-03 4.6175218476335875e-04  1.1781215396714025e-01 6.0755145357927745e-03 -5.1548212736993535e-03  6.0521188548439665e-02 3.4944278670399074e-04 3.4944278670399545e-04  6.0670936613796522e-02 3.5017255285211879e-04 -5.3747922424222418e-03  4.8824165521618994e-02 3.2669320464198513e-04 3.2669320464199744e-04  4.9000290585427327e-02 3.2823763955127164e-04 -5.3846940533054406e-03  7.2161575225711844e-02 3.7136130884393308e-04 3.7136130884395032e-04  7.2283075599689384e-02 3.7141781888778253e-04 -5.3014391015458392e-03  8.3667461306337773e-02 3.9400735437797427e-04 3.9400735437798885e-04  8.3764654862558185e-02 3.9355040271857767e-04 -5.2097877659514676e-03  9.5037735908375054e-02 4.1761057546860691e-04 4.1761057546862252e-04  9.5116366011281830e-02 4.1674970825067583e-04 -5.1316601678890305e-03  1.0633013960849855e-01 4.4084444284469421e-04 4.4084444284472652e-04  1.0639422232307870e-01 4.3970610894228303e-04 -5.0976417547900256e-03  1.1766264544651042e-01 4.5992552862588804e-04 4.5992552862590729e-04  1.1771275200535654e-01 4.5861588949259433e-04 -5.1546593993968565e-03  6.0670936613796529e-02 -5.3747922424222470e-03 3.5017255285212578e-04  6.0818836150977704e-02 -5.3593534879456412e-03 -5.3593534879456377e-03  4.9000290585427306e-02 -5.3846940533054492e-03 3.2823763955127570e-04  4.9174070492983321e-02 -5.3630733611651710e-03 -5.3630733611651649e-03  7.2283075599689411e-02 -5.3014391015458471e-03 3.7141781888781154e-04  7.2403295838875142e-02 -5.2917421838420495e-03 -5.2917421838420183e-03  8.3764654862558213e-02 -5.2097877659514780e-03 3.9355040271858108e-04  8.3861061230411121e-02 -5.2050266665754612e-03 -5.2050266665754448e-03  9.5116366011281830e-02 -5.1316601678890461e-03 4.1674970825069681e-04  9.5194587254349913e-02 -5.1309449101208209e-03 -5.1309449101207940e-03  1.0639422232307870e-01 -5.0976417547900560e-03 4.3970610894231317e-04  1.0645818218476893e-01 -5.0998865783592820e-03 -5.0998865783592326e-03  1.1771275200535658e-01 -5.1546593993969363e-03 4.5861588949262300e-04  1.1776280608366253e-01 -5.1582018061433529e-03 -5.1582018061433321e-03  6.1155839216344973e-02 -1.1077012310309650e-02 3.5044781031288698e-04  6.1298881166311478e-02 -1.1047378584131603e-02 -5.3161594057023155e-03  4.9570189510966013e-02 -1.1098008590641799e-02 3.2927694938565905e-04  4.9738140304366053e-02 -1.1056752856649423e-02 -5.3034133340413795e-03  7.2680510401601339e-02 -1.0943982682122731e-02 3.7118039469635197e-04  7.2797064017202595e-02 -1.0925110274992189e-02 -5.2638086871574187e-03  8.4088313311114854e-02 -1.0784044382623335e-02 3.9299475405978946e-04  8.4182146971246874e-02 -1.0774438758277724e-02 -5.1902211995215608e-03  9.5384900997718083e-02 -1.0654339844530751e-02 4.1599099703409724e-04  9.5461445599873254e-02 -1.0652350064291624e-02 -5.1269017966561808e-03  1.0662081464357810e-01 -1.0606279087890224e-02 4.3887289528583704e-04  1.0668387376836679e-01 -1.0609957324313067e-02 -5.1038025027204158e-03  1.1789450002723782e-01 -1.0716931063709722e-02 4.5790602030385203e-04  1.1794430519312227e-01 -1.0723346078300980e-02 -5.1654545954500277e-03  6.1907217823859134e-02 -1.6715904979599024e-02 3.5046356419523959e-04  6.2043634470200421e-02 -1.6673043946389129e-02 -5.2575673391409422e-03  5.0483846859478466e-02 -1.6784902971095979e-02 3.2988531349600994e-04  5.0643675798458569e-02 -1.6725016797622005e-02 -5.2218688900867415e-03  7.3280603464548399e-02 -1.6515615438698249e-02 3.7087982720239682e-04  7.3392250862590144e-02 -1.6488379461908613e-02 -5.2260723193559063e-03  8.4567224747741435e-02 -1.6294419115217670e-02 3.9254009188459816e-04  8.4657713122060538e-02 -1.6280620550090653e-02 -5.1701991220565423e-03  9.5776044838620872e-02 -1.6122615839615821e-02 4.1551933172629432e-04  9.5850551149090857e-02 -1.6119932998331993e-02 -5.1213624265358266e-03  1.0694781704270967e-01 -1.6058571407381952e-02 4.3850851872588445e-04  1.0701001534514702e-01 -1.6064362504295302e-02 -5.1093688767438507e-03  1.1815446393259359e-01 -1.6184347716093395e-02 4.5784275249494317e-04  1.1820464807686663e-01 -1.6194999356541607e-02 -5.1765993333967681e-03  6.2785780076827544e-02 -2.2223020851622755e-02 3.5088862967387797e-04  6.2916361309572191e-02 -2.2168883271330334e-02 -5.2050839124786041e-03  5.1615359928642655e-02 -2.2360842033049236e-02 3.3053624635770624e-04  5.1767454640060336e-02 -2.2284856252065683e-02 -5.1476937675911470e-03  7.3951405144708701e-02 -2.1966829610992070e-02 3.7111480213523120e-04  7.4059141968609646e-02 -2.1932631511650928e-02 -5.1927134880289296e-03  8.5083593487680798e-02 -2.1706806910960868e-02 3.9255026600244319e-04  8.5171867560009440e-02 -2.1689817546008440e-02 -5.1527367514644555e-03  9.6184847899160181e-02 -2.1512726542731918e-02 4.1545042902664845e-04  9.6258639038887969e-02 -2.1510229105524779e-02 -5.1168371971220226e-03  1.0728084898080496e-01 -2.1436783529132444e-02 4.3876171243071308e-04  1.0734376866073174e-01 -2.1445815075070148e-02 -5.1154578264989729e-03  1.1841260818989963e-01 -2.1535331224463744e-02 4.5844640794389508e-04  1.1846540769493716e-01 -2.1552392519957234e-02 -5.1907521756235468e-03  6.3550253504633697e-02 -2.7510946187525292e-02 3.5320220259443168e-04  6.3680436775829186e-02 -2.7449176007042875e-02 -5.1904941195803486e-03  5.2697143901506045e-02 -2.7677611855091950e-02 3.3273231502587634e-04  5.2847075756963457e-02 -2.7590693344820814e-02 -5.1258286572091723e-03  7.4493170262598010e-02 -2.7252168159579926e-02 3.7307881355041350e-04  7.4601889378089939e-02 -2.7213393034036828e-02 -5.1837684294700143e-03  8.5478568111420614e-02 -2.7000774904159228e-02 3.9390455958709057e-04  8.5568904464753931e-02 -2.6982030796358251e-02 -5.1478198067925153e-03  9.6562017435955910e-02 -2.6814988514044145e-02 -5.1150208159040176e-03  1.0758227444397657e-01 -2.6752333662731224e-02 -5.1170789887852001e-03  1.1864244515170327e-01 -2.6808061149554082e-02 -5.2014787591716993e-03  6.3839905996059487e-02 -3.2509939243850518e-02 3.5770294845401368e-04  6.3983152012371758e-02 -3.2445645646882633e-02 -5.2588334883303571e-03  5.3256761020508962e-02 -3.2563937460630223e-02 3.3746491064085606e-04  5.3419152817634291e-02 -3.2473464644413419e-02 -5.2206218052426329e-03  7.4638824944903814e-02 -3.2356684493016152e-02 3.7679576485407870e-04  7.4760207000227369e-02 -3.2316597501018327e-02 -5.2270225414874959e-03  8.5561164993345873e-02 -3.2190034500586849e-02 3.9689546769438997e-04  8.5663588482020797e-02 -3.2171490651615162e-02 -5.1681966276215258e-03  9.6640035195693974e-02 -3.2062078834127865e-02 -5.1146674524378266e-03  6.4369549728092335e-02 2.7920501654285709e-02 -1.0688485873522639e-02  6.4742621286041122e-02 3.2964601488743667e-02 -1.0804598368909926e-02  5.4249514070711595e-02 3.2870771429455894e-02 -1.0712971735688694e-02  5.3618142055563062e-02 2.7920257464496927e-02 -1.0551365236962335e-02  7.5213600586989754e-02 2.7813467599204150e-02 -1.0694489514666556e-02  7.5445053480256957e-02 3.2949206197375083e-02 -1.0767648006833956e-02  8.6119259124299977e-02 2.7696416298216477e-02 -1.0649298394645689e-02  8.6286441904012065e-02 3.2908263838208426e-02 -1.0683867642230642e-02  9.7070336242644897e-02 2.7631386695353383e-02 -1.0612085348755258e-02  9.7220324315625009e-02 3.2896312802250111e-02 -1.0612142360123955e-02  1.0806134668284004e-01 2.7661046684849897e-02 -1.0638741501724419e-02  1.0821192434934676e-01 3.2946443537201719e-02 -1.0609494013759959e-02  1.1909261897775139e-01 2.7811599970657647e-02 -1.0805174105704420e-02  1.1924176330458935e-01 3.3050500206914094e-02 -1.0773708467782547e-02  6.3567008933083327e-02 2.2660687344732252e-02 -1.0725325138677281e-02  5.2501759515194979e-02 2.2659218508951931e-02 -1.0608766085615258e-02  7.4627593313384269e-02 2.2539937696027818e-02 -1.0716173877688003e-02  8.5673635024551359e-02 2.2403016273937537e-02 -1.0660551374365919e-02  9.6712533171331647e-02 2.2318081997072158e-02 -1.0615848230983075e-02  1.0776288236304460e-01 2.2337915632458120e-02 -1.0633903314265466e-02  1.1884609086528189e-01 2.2522011179318159e-02 -1.0781759389444999e-02  6.2660125830479779e-02 1.7219231534611867e-02 -1.0834173619233754e-02  5.1341805645323216e-02 1.7182339396523607e-02 -1.0763991968475547e-02  7.3924385577794821e-02 1.7126748776224259e-02 -1.0784953876125596e-02  8.5119147242823157e-02 1.7007841300983186e-02 -1.0696655051956524e-02  9.6260172460989044e-02 1.6929771524646468e-02 -1.0625560406881699e-02  1.0738212427045297e-01 1.6949065749910671e-02 -1.0621781848793399e-02  1.1853159981649114e-01 1.7140899984506543e-02 -1.0753416119340067e-02  6.1878452853340489e-02 1.1650717602058764e-02 -1.0954133768269399e-02  5.0399909642107533e-02 1.1588996481405140e-02 -1.0930828452961654e-02  7.3290629393799461e-02 1.1601142431392061e-02 -1.0862561174951744e-02  8.4602795014883381e-02 1.1522518199256563e-02 -1.0738492732749181e-02  9.5828258162846652e-02 1.1470058355157884e-02 -1.0638223274065701e-02  1.0701111435715224e-01 1.1492084347305788e-02 -1.0612018663883616e-02  1.1822284103990133e-01 1.1655080438178670e-02 -1.0731878225962476e-02  6.1355369103142265e-02 6.0142315014184182e-03 -1.1043225654360755e-02  4.9794352207150401e-02 5.9605152010146888e-03 -1.1052664492874120e-02  7.2852543457167643e-02 6.0033754910649578e-03 -1.0921198154385227e-02  8.4236307511143749e-02 5.9739491339909998e-03 -1.0770884361724574e-02  9.5514874088692553e-02 5.9572294381724884e-03 -1.0649098523347538e-02  1.0673723512576828e-01 5.9806412660333135e-03 -1.0606853766473377e-02  1.1799345472085626e-01 6.0812925318676813e-03 -1.0719673590886625e-02  6.1155839216344959e-02 3.5044781031287852e-04 -1.1077012310309643e-02  4.9570189510966013e-02 3.2927694938565254e-04 -1.1098008590641790e-02  7.2680510401601325e-02 3.7118039469634151e-04 -1.0943982682122731e-02  8.4088313311114826e-02 3.9299475405978605e-04 -1.0784044382623315e-02  9.5384900997718056e-02 4.1599099703409085e-04 -1.0654339844530729e-02  1.0662081464357813e-01 4.3887289528583319e-04 -1.0606279087890193e-02  1.1789450002723789e-01 4.5790602030381625e-04 -1.0716931063709646e-02  6.1298881166311457e-02 -5.3161594057023111e-03 -1.1047378584131609e-02  4.9738140304366053e-02 -5.3034133340413804e-03 -1.1056752856649433e-02  7.2797064017202623e-02 -5.2638086871574299e-03 -1.0925110274992178e-02  8.4182146971246874e-02 -5.1902211995215573e-03 -1.0774438758277707e-02  9.5461445599873240e-02 -5.1269017966561930e-03 -1.0652350064291593e-02  1.0668387376836681e-01 -5.1038025027204436e-03 -1.0609957324313043e-02  1.1794430519312230e-01 -5.1654545954500398e-03 -1.0723346078300906e-02  6.1765394201205144e-02 -1.0961916168934133e-02 -1.0961916168934114e-02  5.0286377010746570e-02 -1.0938543214162558e-02 -1.0938543214162565e-02  7.3180326231154474e-02 -1.0869840557165722e-02 -1.0869840557165718e-02  8.4495637689264422e-02 -1.0745068958253171e-02 -1.0745068958253147e-02  9.5723183001421991e-02 -1.0644211304448384e-02 -1.0644211304448363e-02  1.0690668614366181e-01 -1.0617730069879596e-02 -1.0617730069879584e-02  1.1812548225038384e-01 -1.0738619108777412e-02 -1.0738619108777334e-02  6.2491323770383876e-02 -1.6547376165225967e-02 -1.0844551227936421e-02  5.1169251164585296e-02 -1.6549830851153937e-02 -1.0774354626631065e-02  7.3761353890490586e-02 -1.6407806396203792e-02 -1.0794597676712958e-02  8.4961431181289751e-02 -1.6238468803980818e-02 -1.0705329630692519e-02  9.6106266238083160e-02 -1.6109303387298830e-02 -1.0633404977432358e-02  1.0723026196765584e-01 -1.6077848647340975e-02 -1.0629232929322432e-02  1.1838748093585522e-01 -1.6221798810451365e-02 -1.0762174835258412e-02  6.3347400370551935e-02 -2.2008330196172779e-02 -1.0737072466471089e-02  5.2271253586347509e-02 -2.2059044421022196e-02 -1.0620730761877419e-02  7.4416988916632315e-02 -2.1830863860746487e-02 -1.0726998080635963e-02  8.5469173878760338e-02 -2.1637985754847548e-02 -1.0670300077191381e-02  9.6512212710098896e-02 -2.1499792641444186e-02 -1.0624622582923083e-02  1.0756606895650775e-01 -2.1468326716621192e-02 -1.0642073677250688e-02  1.1865596647960391e-01 -2.1597001662622718e-02 -1.0791337418443882e-02  6.4111208260722932e-02 -2.7265036917067227e-02 -1.0701304577063935e-02  5.3345741596645249e-02 -2.7330021583317467e-02 -1.0565565390132356e-02  7.4963168242368247e-02 -2.7097926521119461e-02 -1.0705887723347282e-02  8.5872565610362828e-02 -2.6925211673269785e-02 -1.0659494574524359e-02  9.6824971355491729e-02 -2.6807960960163794e-02 -1.0621298512495598e-02  1.0781828366030582e-01 -2.6787988556633995e-02 -1.0646872478149508e-02  1.1885371049293857e-01 -2.6879012167341749e-02 -1.0814145237995940e-02  6.4454610017431829e-02 -3.2257287482348282e-02 -1.0824262807922997e-02  5.3957706175872727e-02 -3.2206300175147688e-02 -1.0736532958932619e-02  7.5159557871094046e-02 -3.2199435215760019e-02 -1.0783811049517466e-02  8.6002282669936939e-02 -3.2116239176244121e-02 -1.0697092874620198e-02  9.6936583391767348e-02 -3.2061667334382905e-02 -1.0622891510167624e-02  6.5034715720350175e-02 2.7657349391249610e-02 -1.6111320957384538e-02  6.5467309249182898e-02 3.2691397890086439e-02 -1.6245050054825259e-02  5.5108014038321544e-02 3.2475876180090624e-02 -1.6107160107181530e-02  5.4415300268232436e-02 2.7539316150812419e-02 -1.5919050908451284e-02  7.5758132356013211e-02 2.7651532527891834e-02 -1.6135228656760321e-02  7.6043597715636763e-02 3.2781586214521999e-02 -1.6219102301556276e-02  8.6569496346887126e-02 2.7617972071210167e-02 -1.6095839934549345e-02  8.6785422515659863e-02 3.2829493989688582e-02 -1.6135947056756163e-02  9.7456179385807459e-02 2.7621870323387802e-02 -1.6068687717986561e-02  9.7652601520021087e-02 3.2894120776926564e-02 -1.6070378226259795e-02  1.0840667379105819e-01 2.7709972279522994e-02 -1.6120393947073784e-02  1.0860688379813246e-01 3.3015741484994705e-02 -1.6089097985218546e-02  1.1940306814155974e-01 2.7909621339185620e-02 -1.6334362397158655e-02  1.1961265269621360e-01 3.3193994339118744e-02 -1.6299270879096772e-02  6.4235934613535994e-02 2.2433823210595030e-02 -1.61839