<?xml version="1.0"?>
<VTKFile type="UnstructuredGrid"  version="0.1"  >
<UnstructuredGrid>
<Piece  NumberOfPoints="649" NumberOfCells="2627">
<Points>
<DataArray  type="Float64"  NumberOfComponents="3"  format="ascii">0.5 0 0  0.5833333333333334 0 0  0.5833333333333334 0.08333333333333333 0  0.5833333333333334 0.08333333333333333 0.08333333333333333  0.5833333333333334 0 0.08333333333333333  0.5 0 0.08333333333333333  0.5 0.08333333333333333 0  0.5 0.08333333333333333 0.08333333333333333  0.6666666666666666 0 0  0.6666666666666666 0.08333333333333333 0  0.6666666666666666 0.08333333333333333 0.08333333333333333  0.6666666666666666 0 0.08333333333333333  0.75 0 0  0.75 0.08333333333333333 0  0.75 0.08333333333333333 0.08333333333333333  0.75 0 0.08333333333333333  0.8333333333333334 0 0  0.8333333333333334 0.08333333333333333 0  0.8333333333333334 0.08333333333333333 0.08333333333333333  0.8333333333333334 0 0.08333333333333333  0.9166666666666666 0 0  0.9166666666666666 0.08333333333333333 0  0.9166666666666666 0.08333333333333333 0.08333333333333333  0.9166666666666666 0 0.08333333333333333  1 0 0  1 0.08333333333333333 0  1 0.08333333333333333 0.08333333333333333  1 0 0.08333333333333333  0.5833333333333334 0.1666666666666667 0  0.5833333333333334 0.1666666666666667 0.08333333333333333  0.5 0.1666666666666667 0  0.5 0.1666666666666667 0.08333333333333333  0.6666666666666666 0.1666666666666667 0  0.6666666666666666 0.1666666666666667 0.08333333333333333  0.75 0.1666666666666667 0  0.75 0.1666666666666667 0.08333333333333333  0.8333333333333334 0.1666666666666667 0  0.8333333333333334 0.1666666666666667 0.08333333333333333  0.9166666666666666 0.1666666666666667 0  0.9166666666666666 0.1666666666666667 0.08333333333333333  1 0.1666666666666667 0  1 0.1666666666666667 0.08333333333333333  0.5833333333333334 0.25 0  0.5833333333333334 0.25 0.08333333333333333  0.5 0.25 0  0.5 0.25 0.08333333333333333  0.6666666666666666 0.25 0  0.6666666666666666 0.25 0.08333333333333333  0.75 0.25 0  0.75 0.25 0.08333333333333333  0.8333333333333334 0.25 0  0.8333333333333334 0.25 0.08333333333333333  0.9166666666666666 0.25 0  0.9166666666666666 0.25 0.08333333333333333  1 0.25 0  1 0.25 0.08333333333333333  0.5833333333333334 0.3333333333333333 0  0.5833333333333334 0.3333333333333333 0.08333333333333333  0.5 0.3333333333333333 0  0.5 0.3333333333333333 0.08333333333333333  0.6666666666666666 0.3333333333333333 0  0.6666666666666666 0.3333333333333333 0.08333333333333333  0.75 0.3333333333333333 0  0.75 0.3333333333333333 0.08333333333333333  0.8333333333333334 0.3333333333333333 0  0.8333333333333334 0.3333333333333333 0.08333333333333333  0.9166666666666666 0.3333333333333333 0  0.9166666666666666 0.3333333333333333 0.08333333333333333  1 0.3333333333333333 0  1 0.3333333333333333 0.08333333333333333  0.5833333333333334 0.4166666666666667 0  0.5833333333333334 0.4166666666666667 0.08333333333333333  0.5 0.4166666666666667 0  0.5 0.4166666666666667 0.08333333333333333  0.6666666666666666 0.4166666666666667 0  0.6666666666666666 0.4166666666666667 0.08333333333333333  0.75 0.4166666666666667 0  0.75 0.4166666666666667 0.08333333333333333  0.8333333333333334 0.4166666666666667 0  0.8333333333333334 0.4166666666666667 0.08333333333333333  0.9166666666666666 0.4166666666666667 0  0.9166666666666666 0.4166666666666667 0.08333333333333333  1 0.4166666666666667 0  1 0.4166666666666667 0.08333333333333333  0.5833333333333334 0.5 0  0.5833333333333334 0.5 0.08333333333333333  0.5 0.5 0  0.5 0.5 0.08333333333333333  0.6666666666666666 0.5 0  0.6666666666666666 0.5 0.08333333333333333  0.75 0.5 0  0.75 0.5 0.08333333333333333  0.8333333333333334 0.5 0  0.8333333333333334 0.5 0.08333333333333333  0.9166666666666666 0.5 0  0.9166666666666666 0.5 0.08333333333333333  1 0.5 0  1 0.5 0.08333333333333333  0.5833333333333334 0.5833333333333334 0  0.5833333333333334 0.5833333333333334 0.08333333333333333  0.5 0.5833333333333334 0  0.5 0.5833333333333334 0.08333333333333333  0.6666666666666666 0.5833333333333334 0  0.6666666666666666 0.5833333333333334 0.08333333333333333  0.75 0.5833333333333334 0  0.75 0.5833333333333334 0.08333333333333333  0.8333333333333334 0.5833333333333334 0  0.8333333333333334 0.5833333333333334 0.08333333333333333  0.9166666666666666 0.5833333333333334 0  0.9166666666666666 0.5833333333333334 0.08333333333333333  1 0.5833333333333334 0  1 0.5833333333333334 0.08333333333333333  0.5833333333333334 0.6666666666666666 0  0.5833333333333334 0.6666666666666666 0.08333333333333333  0.5 0.6666666666666666 0  0.5 0.6666666666666666 0.08333333333333333  0.6666666666666666 0.6666666666666666 0  0.6666666666666666 0.6666666666666666 0.08333333333333333  0.75 0.6666666666666666 0  0.75 0.6666666666666666 0.08333333333333333  0.8333333333333334 0.6666666666666666 0  0.8333333333333334 0.6666666666666666 0.08333333333333333  0.9166666666666666 0.6666666666666666 0  0.9166666666666666 0.6666666666666666 0.08333333333333333  1 0.6666666666666666 0  1 0.6666666666666666 0.08333333333333333  0.5833333333333334 0.75 0  0.5833333333333334 0.75 0.08333333333333333  0.5 0.75 0  0.5 0.75 0.08333333333333333  0.6666666666666666 0.75 0  0.6666666666666666 0.75 0.08333333333333333  0.75 0.75 0  0.75 0.75 0.08333333333333333  0.8333333333333334 0.75 0  0.8333333333333334 0.75 0.08333333333333333  0.9166666666666666 0.75 0  0.9166666666666666 0.75 0.08333333333333333  1 0.75 0  1 0.75 0.08333333333333333  0.5833333333333334 0.8333333333333334 0  0.5833333333333334 0.8333333333333334 0.08333333333333333  0.5 0.8333333333333334 0  0.5 0.8333333333333334 0.08333333333333333  0.6666666666666666 0.8333333333333334 0  0.6666666666666666 0.8333333333333334 0.08333333333333333  0.75 0.8333333333333334 0  0.75 0.8333333333333334 0.08333333333333333  0.8333333333333334 0.8333333333333334 0  0.8333333333333334 0.8333333333333334 0.08333333333333333  0.9166666666666666 0.8333333333333334 0  0.9166666666666666 0.8333333333333334 0.08333333333333333  1 0.8333333333333334 0  1 0.8333333333333334 0.08333333333333333  0.5833333333333334 0.9166666666666666 0  0.5833333333333334 0.9166666666666666 0.08333333333333333  0.5 0.9166666666666666 0  0.5 0.9166666666666666 0.08333333333333333  0.6666666666666666 0.9166666666666666 0  0.6666666666666666 0.9166666666666666 0.08333333333333333  0.75 0.9166666666666666 0  0.75 0.9166666666666666 0.08333333333333333  0.8333333333333334 0.9166666666666666 0  0.8333333333333334 0.9166666666666666 0.08333333333333333  0.9166666666666666 0.9166666666666666 0  0.9166666666666666 0.9166666666666666 0.08333333333333333  1 0.9166666666666666 0  1 0.9166666666666666 0.08333333333333333  0.5833333333333334 1 0  0.5833333333333334 1 0.08333333333333333  0.5 1 0  0.5 1 0.08333333333333333  0.6666666666666666 1 0  0.6666666666666666 1 0.08333333333333333  0.75 1 0  0.75 1 0.08333333333333333  0.8333333333333334 1 0  0.8333333333333334 1 0.08333333333333333  0.9166666666666666 1 0  0.9166666666666666 1 0.08333333333333333  1 1 0  1 1 0.08333333333333333  0.5833333333333334 0.08333333333333333 0.1666666666666667  0.5833333333333334 0 0.1666666666666667  0.5 0 0.1666666666666667  0.5 0.08333333333333333 0.1666666666666667  0.6666666666666666 0.08333333333333333 0.1666666666666667  0.6666666666666666 0 0.1666666666666667  0.75 0.08333333333333333 0.1666666666666667  0.75 0 0.1666666666666667  0.8333333333333334 0.08333333333333333 0.1666666666666667  0.8333333333333334 0 0.1666666666666667  0.9166666666666666 0.08333333333333333 0.1666666666666667  0.9166666666666666 0 0.1666666666666667  1 0.08333333333333333 0.1666666666666667  1 0 0.1666666666666667  0.5833333333333334 0.1666666666666667 0.1666666666666667  0.5 0.1666666666666667 0.1666666666666667  0.6666666666666666 0.1666666666666667 0.1666666666666667  0.75 0.1666666666666667 0.1666666666666667  0.8333333333333334 0.1666666666666667 0.1666666666666667  0.9166666666666666 0.1666666666666667 0.1666666666666667  1 0.1666666666666667 0.1666666666666667  0.5833333333333334 0.25 0.1666666666666667  0.5 0.25 0.1666666666666667  0.6666666666666666 0.25 0.1666666666666667  0.75 0.25 0.1666666666666667  0.8333333333333334 0.25 0.1666666666666667  0.9166666666666666 0.25 0.1666666666666667  1 0.25 0.1666666666666667  0.5833333333333334 0.3333333333333333 0.1666666666666667  0.5 0.3333333333333333 0.1666666666666667  0.6666666666666666 0.3333333333333333 0.1666666666666667  0.75 0.3333333333333333 0.1666666666666667  0.8333333333333334 0.3333333333333333 0.1666666666666667  0.9166666666666666 0.3333333333333333 0.1666666666666667  1 0.3333333333333333 0.1666666666666667  0.5833333333333334 0.4166666666666667 0.1666666666666667  0.5 0.4166666666666667 0.1666666666666667  0.6666666666666666 0.4166666666666667 0.1666666666666667  0.75 0.4166666666666667 0.1666666666666667  0.8333333333333334 0.4166666666666667 0.1666666666666667  0.9166666666666666 0.4166666666666667 0.1666666666666667  1 0.4166666666666667 0.1666666666666667  0.5833333333333334 0.5 0.1666666666666667  0.5 0.5 0.1666666666666667  0.6666666666666666 0.5 0.1666666666666667  0.75 0.5 0.1666666666666667  0.8333333333333334 0.5 0.1666666666666667  0.9166666666666666 0.5 0.1666666666666667  1 0.5 0.1666666666666667  0.5833333333333334 0.5833333333333334 0.1666666666666667  0.5 0.5833333333333334 0.1666666666666667  0.6666666666666666 0.5833333333333334 0.1666666666666667  0.75 0.5833333333333334 0.1666666666666667  0.8333333333333334 0.5833333333333334 0.1666666666666667  0.9166666666666666 0.5833333333333334 0.1666666666666667  1 0.5833333333333334 0.1666666666666667  0.5833333333333334 0.6666666666666666 0.1666666666666667  0.5 0.6666666666666666 0.1666666666666667  0.6666666666666666 0.6666666666666666 0.1666666666666667  0.75 0.6666666666666666 0.1666666666666667  0.8333333333333334 0.6666666666666666 0.1666666666666667  0.9166666666666666 0.6666666666666666 0.1666666666666667  1 0.6666666666666666 0.1666666666666667  0.58333333333333
[...]
<PointData  Vectors="f_18"> 
<DataArray  type="Float64"  Name="f_18"  NumberOfComponents="3" format="ascii">6.3827687152605450e-02 3.2244886521292399e-02 3.2244886521292357e-02  7.4931653484592659e-02 3.2715690912782751e-02 3.2715690912782779e-02  7.4463673288748436e-02 2.7612378735491262e-02 3.2764018548858916e-02  7.4046783926572463e-02 2.7588228870366303e-02 2.7588228870366303e-02  7.4463673288748450e-02 3.2764018548858923e-02 2.7612378735491269e-02  6.3096537478931222e-02 3.2327359134405320e-02 2.7305276877838902e-02  6.3096537478931208e-02 2.7305276877838899e-02 3.2327359134405341e-02  6.2442089994315025e-02 2.7270182452749429e-02 2.7270182452749429e-02  8.6469031725106060e-02 3.2985393664593229e-02 3.2985393664593216e-02  8.6164040929347652e-02 2.7747637231872221e-02 3.3010873464903681e-02  8.5893427532687472e-02 2.7732142928941241e-02 2.7732142928941252e-02  8.6164040929347652e-02 3.3010873464903653e-02 2.7747637231872225e-02  9.8343546398288670e-02 3.3148542634198294e-02 3.3148542634198294e-02  9.8131249282125271e-02 2.7805582383724353e-02 3.3158485678586369e-02  9.7942709012889581e-02 2.7796861762292610e-02 2.7796861762292627e-02  9.8131249282125271e-02 3.3158485678586383e-02 2.7805582383724357e-02  1.1047029736920054e-01 3.3269895483383050e-02 3.3269895483383008e-02  1.1030359517111195e-01 2.7847217348132815e-02 3.3269400299783675e-02  1.1015356054319339e-01 2.7844014590663258e-02 2.7844014590663269e-02  1.1030359517111195e-01 3.3269400299783654e-02 2.7847217348132804e-02  1.2277179424218113e-01 3.3391196425362639e-02 3.3391196425362618e-02  1.2262417372750105e-01 2.7913176203303951e-02 3.3386929120190541e-02  1.2248646158292993e-01 2.7915125369531571e-02 2.7915125369531550e-02  1.2262417372750103e-01 3.3386929120190534e-02 2.7913176203303958e-02  1.3518380713504802e-01 3.3519175249735744e-02 3.3519175249735696e-02  1.3503511139100952e-01 2.8034023912293968e-02 3.3519257645251904e-02  1.3489048400594386e-01 2.8034687588687403e-02 2.8034687588687431e-02  1.3503511139100940e-01 3.3519257645251897e-02 2.8034023912293943e-02  7.3791850221742603e-02 2.2394234587022131e-02 3.2935306534276482e-02  7.3423620012855711e-02 2.2299326950826561e-02 2.7722600373885114e-02  6.2153977268730128e-02 2.2202529837521853e-02 3.2606547126754773e-02  6.1560173734354406e-02 2.2058575220407172e-02 2.7493750766572445e-02  8.5684982337828994e-02 2.2433672576700203e-02 3.3107075091049099e-02  8.5451759302386410e-02 2.2376136018185156e-02 2.7805680963368291e-02  9.7779854248366160e-02 2.2414623327813233e-02 3.3202445055626272e-02  9.7619869805351797e-02 2.2385142734218946e-02 2.7829263391722325e-02  1.1002985228307205e-01 2.2395025639847094e-02 3.3276503312587122e-02  1.0990241203688779e-01 2.2386941646471162e-02 2.7848444324293807e-02  1.2239209932583227e-01 2.2417380017147444e-02 3.3367178199914201e-02  1.2227435891920176e-01 2.2425167383809581e-02 2.7899960196078096e-02  1.3481948521129675e-01 2.2535094634396447e-02 3.3477474949776147e-02  1.3469741519015219e-01 2.2543299222108598e-02 2.8002620065518156e-02  7.3069434363158214e-02 1.7015642808032798e-02 3.3185483018571792e-02  7.2757401966703772e-02 1.6883794860835757e-02 2.7952181071349624e-02  6.1203521294531396e-02 1.6892374231635261e-02 3.2999213870354455e-02  6.0677999384260425e-02 1.6696323860647393e-02 2.7855538467331405e-02  8.5144066484661385e-02 1.7005248234068161e-02 3.3253191006651160e-02  8.4954972808234247e-02 1.6924071412890384e-02 2.7939000831923910e-02  9.7369261702964963e-02 1.6948111083478525e-02 3.3273269620938427e-02  9.7243809429366307e-02 1.6905886141802530e-02 2.7893812626955734e-02  1.0970342853323965e-01 1.6897141079911440e-02 3.3291150895779165e-02  1.0960435736245511e-01 1.6885019291803961e-02 2.7863324176784329e-02  1.2211265813032721e-01 1.6894150214948309e-02 3.3336314477640870e-02  1.2202144830528198e-01 1.6904424911543901e-02 2.7877931788492911e-02  1.3456231482188227e-01 1.7001295585035509e-02 3.3406686305902336e-02  1.3447216308427440e-01 1.7015458912120439e-02 2.7953631607610278e-02  7.2444433400803310e-02 1.1485402756395213e-02 3.3435225026783741e-02  7.2184194527685278e-02 1.1362744386140579e-02 2.8189625368249312e-02  6.0419985431332916e-02 1.1405839106162266e-02 3.3378307622216080e-02  5.9954972232345138e-02 1.1227059900769373e-02 2.8216000273830484e-02  8.4658957903723325e-02 1.1461538376472616e-02 3.3403386451847691e-02  8.4511596380973997e-02 1.1384696408826986e-02 2.8081733032850283e-02  9.6990889363180940e-02 1.1402623170275692e-02 3.3348588973688621e-02  9.6898813815291709e-02 1.1361821931242706e-02 2.7966011439511287e-02  1.0939642663017900e-01 1.1350465292111488e-02 3.3308515464172538e-02  1.0932533554474291e-01 1.1337903078103421e-02 2.7882778895054569e-02  1.2184660514936331e-01 1.1339232653527999e-02 3.3305129378599647e-02  1.2178177129507241e-01 1.1347965555913829e-02 2.7857337205559139e-02  1.3431907407245922e-01 1.1422205590041727e-02 3.3333526406309003e-02  1.3425961142130141e-01 1.1436291012242987e-02 2.7905301994628366e-02  7.2024030917905268e-02 5.8455208138808810e-03 3.3615688230925575e-02  7.1799962618971397e-02 5.7701696242896793e-03 2.8362641971820698e-02  5.9910891248894024e-02 5.8045904667860717e-03 3.3646022915987485e-02  5.9486455424467524e-02 5.6964824165069367e-03 2.8472461906352962e-02  8.4323931608383570e-02 5.8294363305426899e-03 3.3514056809350608e-02  8.4206448068474563e-02 5.7814546535172717e-03 2.8188008432106990e-02  9.6724147862738766e-02 5.7943978065398746e-03 3.3405229425060669e-02  9.6656399561253908e-02 5.7682850102179929e-03 2.8021126677224117e-02  1.0917653515457373e-01 5.7637846665346487e-03 3.3322348296774183e-02  1.0912609824616132e-01 5.7549401357493424e-03 2.7898752014159301e-02  1.2165427292133735e-01 5.7565161297103620e-03 3.3282541428711281e-02  1.2160889500429388e-01 5.7609519560084524e-03 2.7843172808350004e-02  1.3414426611113014e-01 5.8021711295851370e-03 3.3279846652436801e-02  1.3410660619027964e-01 5.8110380538742741e-03 2.7870782061897068e-02  7.1869636904405385e-02 1.4899948230567186e-04 3.3684239689682205e-02  7.1659149036532699e-02 1.4163644296062757e-04 2.8427263221203727e-02  5.9728887951948584e-02 1.4872959031386710e-04 3.3746670105413219e-02  5.9318972067512479e-02 1.3870826354881884e-04 2.8567206421412628e-02  8.4198041663505307e-02 1.4968226257432957e-04 3.3556471133181401e-02  8.4092087706855473e-02 1.4447928845350629e-04 2.8228133290091828e-02  9.6621943115418038e-02 1.5140831714894666e-04 3.3427162153978611e-02  9.6563747613142556e-02 1.4788965292548980e-04 2.8042230101297590e-02  1.0909091105754684e-01 1.5430947576408369e-04 3.3327920778287057e-02  1.0904869238857424e-01 1.5201451947728951e-04 2.7905107020000881e-02  1.2157857560628697e-01 1.5740333352128491e-04 3.3274039769958332e-02  1.2154093453913799e-01 1.5633989917430882e-04 2.7837950176168975e-02  1.3407630103060361e-01 1.5831707760588753e-04 3.3259340922768964e-02  1.3404660774260729e-01 1.5913660931841269e-04 2.7857840988323161e-02  7.2000942592579456e-02 -5.5499259979599402e-03 3.3626112507982531e-02  7.1779289260007872e-02 -5.4884747816174653e-03 2.8368565857409597e-02  5.9888927674698167e-02 -5.5093758728039580e-03 3.3661846292160992e-02  5.9466080835173490e-02 -5.4206326709057631e-03 2.8481382304779874e-02  8.4301459703633938e-02 -5.5320933467612613e-03 3.3520330953295055e-02  8.4186435113344255e-02 -5.4937181320965497e-03 2.8191713946359134e-02  9.6703081280949288e-02 -5.4931689997840729e-03 3.3408463858307591e-02  9.6637564427722811e-02 -5.4733973206363062e-03 2.8023208813590165e-02  1.0915677733892351e-01 -5.4564260270469067e-03 3.3323360537888459e-02  1.0910841019878609e-01 -5.4516098563600910e-03 2.7899489092683097e-02  1.2163537310514327e-01 -5.4423813461852233e-03 3.3281495389280241e-02  1.2159193935953375e-01 -5.4486844039157867e-03 2.7842405778290703e-02  1.3412913411716856e-01 -5.4850716909814147e-03 3.3276843944877468e-02  1.3409180584267238e-01 -5.4925571161698605e-03 2.7869069943430958e-02  7.2398605865347854e-02 -1.1197101558499910e-02 3.3453813235030300e-02  7.2143449197748136e-02 -1.1085335133001122e-02 2.8200135560341989e-02  6.0375131277396202e-02 -1.1118215764503151e-02 3.3407294917546702e-02  5.9914213725560689e-02 -1.0955837865385452e-02 2.8232111876188772e-02  8.4615084427637585e-02 -1.1169954521199097e-02 3.3414282633091597e-02  8.4472559041296164e-02 -1.1100099740885534e-02 2.8088174554080615e-02  9.6950058999468153e-02 -1.1105714077298982e-02 3.3353996108366042e-02  9.6862232169382431e-02 -1.1069137261550370e-02 2.7969499671866987e-02  1.0935831452854788e-01 -1.1046510247037971e-02 3.3310005683424342e-02  1.0929107171971787e-01 -1.1036334708458903e-02 2.7883845660605137e-02  1.2181023538646972e-01 -1.1026999727343997e-02 3.3303115980524670e-02  1.2174898339819258e-01 -1.1036835175272061e-02 2.7855737650210047e-02  1.3428937817041733e-01 -1.1103583914413866e-02 3.3328118017411305e-02  1.3423048839185361e-01 -1.1117089220110864e-02 2.7901977840895688e-02  7.3002440398790891e-02 -1.6739087429283431e-02 3.3207289074287841e-02  7.2698346819367377e-02 -1.6611884408294766e-02 2.7964601235353496e-02  6.1135014910134435e-02 -1.6619320464347991e-02 3.3035022862625774e-02  6.0617440315760912e-02 -1.6432126901506999e-02 2.7875293870214923e-02  8.5081296240834020e-02 -1.6721920463070784e-02 3.3265356797866942e-02  8.4899112153768636e-02 -1.6643005729287716e-02 2.7946318372681585e-02  9.7311214714081593e-02 -1.6656819959353107e-02 3.3278858985769613e-02  9.7191570185974976e-02 -1.6615429263259752e-02 2.7897497296781266e-02  1.0964935088156684e-01 -1.6597473224974874e-02 3.3292146474965430e-02  1.0955537606570580e-01 -1.6585327005455678e-02 2.7864027751544840e-02  1.2206116577360954e-01 -1.6584632866490836e-02 3.3333377271487094e-02  1.2197466523409317e-01 -1.6594897191372870e-02 2.7875404947699176e-02  1.3451864731222149e-01 -1.6679867470326869e-02 3.3399866199172235e-02  1.3442939549451519e-01 -1.6694898282964405e-02 2.7948901646607328e-02  7.3707632937229969e-02 -2.2130821430859340e-02 3.2952547116766033e-02  7.3349972447520603e-02 -2.2031507772711421e-02 2.7732542008095881e-02  6.2063891946843593e-02 -2.1949821060369006e-02 3.2637326228888167e-02  6.1482805888030720e-02 -2.1802056370322450e-02 2.7510425444191237e-02  8.5607332836810754e-02 -2.2158148269058649e-02 3.3116012917364428e-02  8.5382492968363616e-02 -2.2096842881181179e-02 2.7811320669352720e-02  9.7707994559505532e-02 -2.2127782248262534e-02 3.3205978520789617e-02  9.7554699790052657e-02 -2.2095374253735110e-02 2.7831829526701983e-02  1.0996245454918074e-01 -2.2098278001195754e-02 3.3276062669692526e-02  1.0984067391458842e-01 -2.2087949353274031e-02 2.7848272010252691e-02  1.2232780652389265e-01 -2.2110322495906110e-02 3.3363233094353836e-02  1.2221532169654468e-01 -2.2117182133698347e-02 2.7896692162125102e-02  1.3476156526160771e-01 -2.2209916911653180e-02 3.3470360714660585e-02  1.3464156366141450e-01 -2.2220941526608584e-02 2.7997023006408682e-02  7.4367589883655758e-02 -2.7354810869818162e-02 3.2769915855223597e-02  7.3962678756426981e-02 -2.7319712263612333e-02 2.7591858082843090e-02  6.2990331887210593e-02 -2.7066505613874293e-02 3.2338355357999032e-02  6.2352980907584121e-02 -2.7016372154646470e-02 2.7275039569634348e-02  8.6076026455521176e-02 -2.7474241583167965e-02 3.3013902104159970e-02  8.5814042175617805e-02 -2.7451433787329588e-02 2.7734695638180783e-02  9.8049339153422038e-02 -2.7519130328099269e-02 3.3159311805600881e-02  9.7867259297336112e-02 -2.7505780084017866e-02 2.7798112542050044e-02  1.1022589897152842e-01 -2.7549640147771306e-02 3.3267837764682617e-02  1.1008087894292506e-01 -2.7543791194552848e-02 2.7843587943473004e-02  1.2254928972890528e-01 -2.7605536573167961e-02 3.3382535797555679e-02  1.2241594743351088e-01 -2.7606717184461591e-02 2.7912532033073225e-02  1.3496154803296304e-01 -2.7706692770458379e-02 3.3513501496035984e-02  1.3482150360268613e-01 -2.7710294983100493e-02 2.8029665801712407e-02  7.4816009142950335e-02 -3.2443039311949348e-02 3.2709102180481349e-02  7.4376646073590513e-02 -3.2490184000103575e-02 2.7618610558571812e-02  6.3692279650663500e-02 -3.1986276439018670e-02 3.2233965427258419e-02  6.3010785829176796e-02 -3.2066406919284376e-02 2.7309890147173874e-02  8.6366029516725756e-02 -3.2701644184336000e-02 3.2981796983382737e-02  8.6078975933300939e-02 -3.2726449550130536e-02 2.7753352385763992e-02  9.8249178645530372e-02 -3.2855519838442628e-02 3.3146066037087654e-02  9.8048978959324420e-02 -3.2864920807113542e-02 2.7809517856858264e-02  1.1038271954249859e-01 -3.2968011183147183e-02 3.3266609894082914e-02  1.1022366583638436e-01 -3.2966910701817329e-02 2.7848695695241243e-02  1.2268993767915100e-01 -3.3079361214070263e-02 3.3386726860358873e-02  1.2254445462943626e-01 -3.3073999783774295e-02 2.7912494019778120e-02  1.3509324372201600e-01 -3.3198798626523016e-02 3.3519568795153692e-02  1.3495067581781722e-01 -3.3197200457881264e-02 2.8028283588195084e-02  7.3423620012855698e-02 2.7722600373885110e-02 2.2299326950826572e-02  7.3791850221742616e-02 3.2935306534276482e-02 2.2394234587022149e-02  6.2153977268730141e-02 3.2606547126754773e-02 2.2202529837521870e-02  6.1560173734354427e-02 2.7493750766572449e-02 2.2058575220407172e-02  8.5451759302386396e-02 2.7805680963368280e-02 2.2376136018185156e-02  8.5684982337829008e-02 3.3107075091049099e-02 2.2433672576700207e-02  9.7619869805351811e-02 2.7829263391722325e-02 2.2385142734218943e-02  9.7779854248366188e-02 3.3202445055626265e-02 2.2414623327813243e-02  1.0990241203688780e-01 2.7848444324293797e-02 2.2386941646471165e-02  1.1002985228307208e-01 3.3276503312587122e-02 2.2395025639847108e-02  1.2227435891920177e-01 2.7899960196078089e-02 2.2425167383809588e-02  1.2239209932583224e-01 3.3367178199914201e-02 2.2417380017147458e-02  1.3469741519015224e-01 2.8002620065518138e-02 2.2543299222108602e-02  1.3481948521129669e-01 3.3477474949776126e-02 2.2535094634396440e-02  7.2818281083149236e-02 2.2388479471516145e-02 2.2388479471516152e-02  6.0688998226197700e-02 2.2209037105922196e-02 2.2209037105922182e-02  8.5028866753621465e-02 2.2424024427016881e-02 2.2424024427016884e-02  9.7314706405345328e-02 2.2405698800294659e-02 2.2405698800294659e-02  1.0966820779517869e-01 2.2389203233413417e-02 2.2389203233413410e-02  1.2208053946833816e-01 2.2413722908468714e-02 2.2413722908468721e-02  1.3452633664396466e-01 2.2516869673155235e-02 2.2516869673155238e-02  7.2154426320289899e-02 1.6934685203876566e-02 2.2577743468417164e-02  5.9797986622846730e-02 1.6784860630075046e-02 2.2505811192175412e-02  8.4540033125859990e-02 1.6950206505640952e-02 2.2534452498658795e-02  9.6949138160253981e-02 1.6916241130577069e-02 2.2459899872465154e-02  1.0938241186204944e-01 1.6885005932532782e-02 2.2403365679854008e-02  1.2184297227170357e-01 1.6895581561564822e-02 2.2399044687862784e-02  1.3432254650810585e-01 1.6993891465463904e-02 2.2482507839317694e-02  7.1581730012868952e-02 1.1385141086572079e-02 2.2781839312941494e-02  5.9067169543990619e-02 1.1268369053990241e-02 2.2814133980332853e-02  8.4101853226125484e-02 1.1395020645856907e-02 2.2657829939791617e-02  9.6611791605438049e-02 1.1364862650945894e-02 2.2523371872467526e-02  1.0911280407384895e-01 1.1336271031639360e-02 2.2422993440538500e-02  1.2161552879256404e-01 1.1341495340898388e-02 2.2387221785240160e-02  1.3412826862480487e-01 1.1420616467759215e-02 2.2451667090463517e-02  7.1198441189917333e-02 5.7762121712520344e-03 2.2932976686302575e-02  5.8594714497469939e-02 5.7096049098116358e-03 2.3037229117224223e-02  8.3800461726527165e-02 5.7832531711580508e-03 2.2751160639406433e-02  9.6374633187156306e-02 5.7677730699126888e-03 2.2572629951702998e-02  1.0891989802543083e-01 5.7530235677482134e-03 2.2439370588187992e-02  1.2145077208745801e-01 5.7570923358633806e-03 2.2379903665718161e-02  1.3398768070593559e-01 5.8023332383871345e-03 2.2430703245668333e-02  7.1058524337973633e-02 1.3967106815290198e-04 2.2989777993180329e-02  5.8426365133247476e-02 1.3642741098718306e-04 2.3120268770934472e-02  8.3687955033128814e-02 1.4284972453558559e-04 2.2786553971272244e-02  9.6284289135993559e-02 1.4656893861166064e-04 2.2591498783701629e-02  1.0884506625624403e-01 1.5094216359082355e-04 2.2445745463160690e-02  1.2138586118952023e-01 1.5541240330952370e-04 2.2377149696287995e-02  1.3393233987283290e-01 1.5808066069689813e-04 2.2422793755248843e-02  7.1179046657555103e-02 -5.4980931699467536e-03 2.2938214846902862e-02  5.8575176132311710e-02 -5.4377863066986274e-03 2.3045383231851551e-02  8.3781815813648020e-02 -5.4985236552209443e-03 2.2754254051200712e-02  9.6357069063501555e-02 -5.4753391637627777e-03 2.2574145151760684e-02  1.0890324565281308e-01 -5.4517029460167564e-03 2.2439561493342395e-02  1.2143446589047512e-01 -5.4466180720280045e-03 2.2378832378950740e-02  1.3397372162661494e-01 -5.4859524642701064e-03 2.2428905845045345e-02  7.1543495412077718e-02 -1.1110658882619591e-02 2.2791111254852333e-02  5.9028273724255141e-02 -1.1000137842002064e-02 2.2828992068711883e-02  8.4065403463484401e-02 -1.1112957817919994e-02 2.2663144883318661e-02  9.6577614232989967e-02 -1.1074251703011850e-02 2.2525834359058059e-02  1.0908055869752822e-01 -1.1036412519099622e-02 2.2423093359156394e-02  1.2158412315449539e-01 -1.1032013168977438e-02 2.2385068030942333e-02  1.3410083923382260e-01 -1.1103466112305574e-02 2.2448108882471250e-02  7.2099046779781892e-02 -1.6666008917210637e-02 2.2588426310454487e-02  5.9740556156405354e-02 -1.6524157987572532e-02 2.2523942772823092e-02  8.4487799560584526e-02 -1.6671693410779061e-02 2.2540231485142646e-02  9.6900256178299643e-02 -1.6627694693542000e-02 2.2462270835851207e-02  1.0933636987038452e-01 -1.6586777531495726e-02 2.2402934695703172e-02  1.2179850903360893e-01 -1.6587510213328018e-02 2.2395886583356787e-02  1.3428243303896284e-01 -1.6675167175910950e-02 2.2477369037670988e-02  7.2749569914061243e-02 -2.2125807739132110e-02 2.2396560084231222e-02  6.0616342541913504e-02 -2.1960660087234293e-02 2.2224041687927919e-02  8.4964222012295226e-02 -2.2147880927181438e-02 2.2428079973089717e-02  9.7253716380425917e-02 -2.2117904118916901e-02 2.2407012751799391e-02  1.0961022907049194e-01 -2.2091516331522978e-02 2.2388119116610174e-02  1.2202495819579287e-01 -2.2106832490237156e-02 2.2410019211046846e-02  1.3447422338498882e-01 -2.2195682039402816e-02 2.2510728805783739e-02  7.3350590203335439e-02 -2.7456033216979151e-02 2.2302469484285169e-02  6.1484678591463761e-02 -2.7244281301963647e-02 2.2064215139514270e-02  8.5380854254100996e-02 -2.7526088072685060e-02 2.2378011037587069e-02  9.7550956380663259e-02 -2.7539081917357110e-02 2.2385836947685079e-02  1.0983497715679540e-01 -2.7549128950116561e-02 2.2386212034361953e-02  1.2220860842241231e-01 -2.7592312267841163e-02 2.2422154492871420e-02  1.3463316656889415e-01 -2.7679202486856690e-02 2.2536902637342857e-02  7.3721826840089003e-02 -3.2659754828406974e-02 2.2399155259539151e-02  6.2091715628285186e-02 -3.2341470378369638e-02 2.2207102889297545e-02  8.5611778936520153e-02 -3.2822002719698172e-02 2.2438434064886704e-02  9.7705941493093473e-02 -3.2908749965946109e-02 2.2418335918688394e-02  1.0995598353657055e-01 -3.2974266735584533e-02 2.2397147969901856e-02  1.2231784703353653e-01 -3.3055171519474034e-02 2.2416645364928739e-02  1.3474312377518963e-01 -3.3158680261257366e-02 2.2525709556949752e-02  7.2757401966703772e-02 2.7952181071349620e-02 1.6883794860835757e-02  7.3069434363158201e-02 3.3185483018571792e-02 1.7015642808032801e-02  6.1203521294531417e-02 3.2999213870354455e-02 1.6892374231635268e-02  6.0677999384260418e-02 2.7855538467331409e-02 1.6696323860647400e-02  8.4954972808234261e-02 2.7939000831923900e-02 1.6924071412890387e-02  8.5144066484661399e-02 3.3253191006651167e-02 1.7005248234068165e-02  9.7243809429366321e-02 2.7893812626955724e-02 1.6905886141802540e-02  9.7369261702964990e-02 3.3273269620938434e-02 1.6948111083478525e-02  1.0960435736245511e-01 2.7863324176784322e-02 1.6885019291803964e-02  1.0970342853323964e-01 3.3