<?xml version="1.0"?>
<VTKFile type="UnstructuredGrid"  version="0.1"  >
<UnstructuredGrid>
<Piece  NumberOfPoints="629" NumberOfCells="2557">
<Points>
<DataArray  type="Float64"  NumberOfComponents="3"  format="ascii">0.5 0 0.4166666666666667  0.5833333333333334 0 0.4166666666666667  0.5833333333333334 0 0.5  0.5833333333333334 0.08333333333333333 0.5  0.5 0 0.5  0.5 0.08333333333333333 0.5  0.6666666666666666 0 0.5  0.6666666666666666 0.08333333333333333 0.5  0.5833333333333334 0.08333333333333333 0.5833333333333334  0.5833333333333334 0 0.5833333333333334  0.5 0 0.5833333333333334  0.5 0.08333333333333333 0.5833333333333334  0.6666666666666666 0.08333333333333333 0.5833333333333334  0.6666666666666666 0 0.5833333333333334  0.75 0 0.5  0.75 0.08333333333333333 0.5  0.75 0.08333333333333333 0.5833333333333334  0.75 0 0.5833333333333334  0.8333333333333334 0 0.5  0.8333333333333334 0.08333333333333333 0.5  0.8333333333333334 0.08333333333333333 0.5833333333333334  0.8333333333333334 0 0.5833333333333334  0.9166666666666666 0 0.5  0.9166666666666666 0.08333333333333333 0.5  0.9166666666666666 0.08333333333333333 0.5833333333333334  0.9166666666666666 0 0.5833333333333334  1 0 0.5  1 0.08333333333333333 0.5  1 0.08333333333333333 0.5833333333333334  1 0 0.5833333333333334  0.5833333333333334 0.1666666666666667 0.5  0.5833333333333334 0.1666666666666667 0.5833333333333334  0.5 0.1666666666666667 0.5  0.5 0.1666666666666667 0.5833333333333334  0.6666666666666666 0.1666666666666667 0.5  0.6666666666666666 0.1666666666666667 0.5833333333333334  0.75 0.1666666666666667 0.5  0.75 0.1666666666666667 0.5833333333333334  0.8333333333333334 0.1666666666666667 0.5  0.8333333333333334 0.1666666666666667 0.5833333333333334  0.9166666666666666 0.1666666666666667 0.5  0.9166666666666666 0.1666666666666667 0.5833333333333334  1 0.1666666666666667 0.5  1 0.1666666666666667 0.5833333333333334  0.5833333333333334 0.25 0.5  0.5833333333333334 0.25 0.5833333333333334  0.5 0.25 0.5  0.5 0.25 0.5833333333333334  0.6666666666666666 0.25 0.5  0.6666666666666666 0.25 0.5833333333333334  0.75 0.25 0.5  0.75 0.25 0.5833333333333334  0.8333333333333334 0.25 0.5  0.8333333333333334 0.25 0.5833333333333334  0.9166666666666666 0.25 0.5  0.9166666666666666 0.25 0.5833333333333334  1 0.25 0.5  1 0.25 0.5833333333333334  0.5833333333333334 0.3333333333333333 0.5  0.5833333333333334 0.3333333333333333 0.5833333333333334  0.5 0.3333333333333333 0.5  0.5 0.3333333333333333 0.5833333333333334  0.6666666666666666 0.3333333333333333 0.5  0.6666666666666666 0.3333333333333333 0.5833333333333334  0.75 0.3333333333333333 0.5  0.75 0.3333333333333333 0.5833333333333334  0.8333333333333334 0.3333333333333333 0.5  0.8333333333333334 0.3333333333333333 0.5833333333333334  0.9166666666666666 0.3333333333333333 0.5  0.9166666666666666 0.3333333333333333 0.5833333333333334  1 0.3333333333333333 0.5  1 0.3333333333333333 0.5833333333333334  0.5833333333333334 0.4166666666666667 0.5  0.5833333333333334 0.4166666666666667 0.5833333333333334  0.5 0.4166666666666667 0.5  0.5 0.4166666666666667 0.5833333333333334  0.6666666666666666 0.4166666666666667 0.5  0.6666666666666666 0.4166666666666667 0.5833333333333334  0.75 0.4166666666666667 0.5  0.75 0.4166666666666667 0.5833333333333334  0.8333333333333334 0.4166666666666667 0.5  0.8333333333333334 0.4166666666666667 0.5833333333333334  0.9166666666666666 0.4166666666666667 0.5  0.9166666666666666 0.4166666666666667 0.5833333333333334  1 0.4166666666666667 0.5  1 0.4166666666666667 0.5833333333333334  0.5833333333333334 0.5 0.5  0.5833333333333334 0.5 0.5833333333333334  0.5 0.5 0.5  0.5 0.5 0.5833333333333334  0.6666666666666666 0.5 0.5  0.6666666666666666 0.5 0.5833333333333334  0.75 0.5 0.5  0.75 0.5 0.5833333333333334  0.8333333333333334 0.5 0.5  0.8333333333333334 0.5 0.5833333333333334  0.9166666666666666 0.5 0.5  0.9166666666666666 0.5 0.5833333333333334  1 0.5 0.5  1 0.5 0.5833333333333334  0.5833333333333334 0.5833333333333334 0.5  0.5833333333333334 0.5833333333333334 0.5833333333333334  0.5 0.5833333333333334 0.5  0.5 0.5833333333333334 0.5833333333333334  0.6666666666666666 0.5833333333333334 0.5  0.6666666666666666 0.5833333333333334 0.5833333333333334  0.75 0.5833333333333334 0.5  0.75 0.5833333333333334 0.5833333333333334  0.8333333333333334 0.5833333333333334 0.5  0.8333333333333334 0.5833333333333334 0.5833333333333334  0.9166666666666666 0.5833333333333334 0.5  0.9166666666666666 0.5833333333333334 0.5833333333333334  1 0.5833333333333334 0.5  1 0.5833333333333334 0.5833333333333334  0.5833333333333334 0.6666666666666666 0.5  0.5833333333333334 0.6666666666666666 0.5833333333333334  0.5 0.6666666666666666 0.5  0.5 0.6666666666666666 0.5833333333333334  0.6666666666666666 0.6666666666666666 0.5  0.6666666666666666 0.6666666666666666 0.5833333333333334  0.75 0.6666666666666666 0.5  0.75 0.6666666666666666 0.5833333333333334  0.8333333333333334 0.6666666666666666 0.5  0.8333333333333334 0.6666666666666666 0.5833333333333334  0.9166666666666666 0.6666666666666666 0.5  0.9166666666666666 0.6666666666666666 0.5833333333333334  1 0.6666666666666666 0.5  1 0.6666666666666666 0.5833333333333334  0.5833333333333334 0.75 0.5  0.5833333333333334 0.75 0.5833333333333334  0.5 0.75 0.5  0.5 0.75 0.5833333333333334  0.6666666666666666 0.75 0.5  0.6666666666666666 0.75 0.5833333333333334  0.75 0.75 0.5  0.75 0.75 0.5833333333333334  0.8333333333333334 0.75 0.5  0.8333333333333334 0.75 0.5833333333333334  0.9166666666666666 0.75 0.5  0.9166666666666666 0.75 0.5833333333333334  1 0.75 0.5  1 0.75 0.5833333333333334  0.5833333333333334 0.8333333333333334 0.5  0.5833333333333334 0.8333333333333334 0.5833333333333334  0.5 0.8333333333333334 0.5  0.5 0.8333333333333334 0.5833333333333334  0.6666666666666666 0.8333333333333334 0.5  0.6666666666666666 0.8333333333333334 0.5833333333333334  0.75 0.8333333333333334 0.5  0.75 0.8333333333333334 0.5833333333333334  0.8333333333333334 0.8333333333333334 0.5  0.8333333333333334 0.8333333333333334 0.5833333333333334  0.9166666666666666 0.8333333333333334 0.5  0.9166666666666666 0.8333333333333334 0.5833333333333334  1 0.8333333333333334 0.5  1 0.8333333333333334 0.5833333333333334  0.5833333333333334 0.9166666666666666 0.5  0.5833333333333334 0.9166666666666666 0.5833333333333334  0.5 0.9166666666666666 0.5  0.5 0.9166666666666666 0.5833333333333334  0.6666666666666666 0.9166666666666666 0.5  0.6666666666666666 0.9166666666666666 0.5833333333333334  0.75 0.9166666666666666 0.5  0.75 0.9166666666666666 0.5833333333333334  0.8333333333333334 0.9166666666666666 0.5833333333333334  0.9166666666666666 0.9166666666666666 0.5833333333333334  1 0.9166666666666666 0.5833333333333334  0.5833333333333334 1 0.5  0.5833333333333334 1 0.5833333333333334  0.5 1 0.5  0.5 1 0.5833333333333334  0.6666666666666666 1 0.5  0.6666666666666666 1 0.5833333333333334  0.75 1 0.5  0.75 1 0.5833333333333334  0.8333333333333334 1 0.5833333333333334  0.5833333333333334 0.08333333333333333 0.6666666666666666  0.5833333333333334 0 0.6666666666666666  0.5 0 0.6666666666666666  0.5 0.08333333333333333 0.6666666666666666  0.6666666666666666 0.08333333333333333 0.6666666666666666  0.6666666666666666 0 0.6666666666666666  0.75 0.08333333333333333 0.6666666666666666  0.75 0 0.6666666666666666  0.8333333333333334 0.08333333333333333 0.6666666666666666  0.8333333333333334 0 0.6666666666666666  0.9166666666666666 0.08333333333333333 0.6666666666666666  0.9166666666666666 0 0.6666666666666666  1 0.08333333333333333 0.6666666666666666  1 0 0.6666666666666666  0.5833333333333334 0.1666666666666667 0.6666666666666666  0.5 0.1666666666666667 0.6666666666666666  0.6666666666666666 0.1666666666666667 0.6666666666666666  0.75 0.1666666666666667 0.6666666666666666  0.8333333333333334 0.1666666666666667 0.6666666666666666  0.9166666666666666 0.1666666666666667 0.6666666666666666  1 0.1666666666666667 0.6666666666666666  0.5833333333333334 0.25 0.6666666666666666  0.5 0.25 0.6666666666666666  0.6666666666666666 0.25 0.6666666666666666  0.75 0.25 0.6666666666666666  0.8333333333333334 0.25 0.6666666666666666  0.9166666666666666 0.25 0.6666666666666666  1 0.25 0.6666666666666666  0.5833333333333334 0.3333333333333333 0.6666666666666666  0.5 0.3333333333333333 0.6666666666666666  0.6666666666666666 0.3333333333333333 0.6666666666666666  0.75 0.3333333333333333 0.6666666666666666  0.8333333333333334 0.3333333333333333 0.6666666666666666  0.9166666666666666 0.3333333333333333 0.6666666666666666  1 0.3333333333333333 0.6666666666666666  0.5833333333333334 0.4166666666666667 0.6666666666666666  0.5 0.4166666666666667 0.6666666666666666  0.6666666666666666 0.4166666666666667 0.6666666666666666  0.75 0.4166666666666667 0.6666666666666666  0.8333333333333334 0.4166666666666667 0.6666666666666666  0.9166666666666666 0.4166666666666667 0.6666666666666666  1 0.4166666666666667 0.6666666666666666  0.5833333333333334 0.5 0.6666666666666666  0.5 0.5 0.6666666666666666  0.6666666666666666 0.5 0.6666666666666666  0.75 0.5 0.6666666666666666  0.8333333333333334 0.5 0.6666666666666666  0.9166666666666666 0.5 0.6666666666666666  1 0.5 0.6666666666666666  0.5833333333333334 0.5833333333333334 0.6666666666666666  0.5 0.5833333333333334 0.6666666666666666  0.6666666666666666 0.5833333333333334 0.6666666666666666  0.75 0.5833333333333334 0.6666666666666666  0.8333333333333334 0.5833333333333334 0.6666666666666666  0.9166666666666666 0.5833333333333334 0.6666666666666666  1 0.5833333333333334 0.6666666666666666  0.5833333333333334 0.6666666666666666 0.6666666666666666  0.5 0.6666666666666666 0.6666666666666666  0.6666666666666666 0.6666666666666666 0.6666666666666666  0.75 0.6666666666666666 0.6666666666666666  0.8333333333333334 0.6666666666666666 0.6666666666666666  0.9166666666666666 0.6666666666666666 0.6666666666666666  1 0.6666666666666666 0.6666666666666666  0.5833333333333334 0.75 0.6666666666666666  0.5 0.75 0.6666666666666666  0.6666666666666666 0.75
[...]
<PointData  Vectors="f_18"> 
<DataArray  type="Float64"  Name="f_18"  NumberOfComponents="3" format="ascii">5.9910891248894024e-02 3.3646022915987457e-02 5.8045904667860708e-03  7.2024030917905268e-02 3.3615688230925547e-02 5.8455208138808775e-03  7.1869636904405385e-02 3.3684239689682170e-02 1.4899948230567093e-04  7.1659149036532713e-02 2.8427263221203723e-02 1.4163644296063231e-04  5.9728887951948577e-02 3.3746670105413192e-02 1.4872959031384645e-04  5.9318972067512486e-02 2.8567206421412621e-02 1.3870826354881811e-04  8.4198041663505321e-02 3.3556471133181401e-02 1.4968226257431068e-04  8.4092087706855473e-02 2.8228133290091828e-02 1.4447928845348260e-04  7.1779289260007886e-02 2.8368565857409586e-02 -5.4884747816174575e-03  7.2000942592579456e-02 3.3626112507982510e-02 -5.5499259979599229e-03  5.9888927674698174e-02 3.3661846292160971e-02 -5.5093758728039519e-03  5.9466080835173483e-02 2.8481382304779881e-02 -5.4206326709057484e-03  8.4186435113344241e-02 2.8191713946359123e-02 -5.4937181320965428e-03  8.4301459703633952e-02 3.3520330953295041e-02 -5.5320933467612613e-03  9.6621943115418024e-02 3.3427162153978618e-02 1.5140831714892532e-04  9.6563747613142528e-02 2.8042230101297600e-02 1.4788965292550100e-04  9.6637564427722825e-02 2.8023208813590151e-02 -5.4733973206362811e-03  9.6703081280949274e-02 3.3408463858307619e-02 -5.4931689997840642e-03  1.0909091105754683e-01 3.3327920778287043e-02 1.5430947576407938e-04  1.0904869238857423e-01 2.7905107020000881e-02 1.5201451947730556e-04  1.0910841019878607e-01 2.7899489092683104e-02 -5.4516098563600892e-03  1.0915677733892354e-01 3.3323360537888459e-02 -5.4564260270469189e-03  1.2157857560628696e-01 3.3274039769958332e-02 1.5740333352129158e-04  1.2154093453913800e-01 2.7837950176168972e-02 1.5633989917433443e-04  1.2159193935953380e-01 2.7842405778290710e-02 -5.4486844039157737e-03  1.2163537310514329e-01 3.3281495389280234e-02 -5.4423813461852086e-03  1.3407630103060361e-01 3.3259340922768957e-02 1.5831707760588244e-04  1.3404660774260729e-01 2.7857840988323165e-02 1.5913660931840545e-04  1.3409180584267236e-01 2.7869069943430944e-02 -5.4925571161698614e-03  1.3412913411716859e-01 3.3276843944877482e-02 -5.4850716909814355e-03  7.1058524337973605e-02 2.2989777993180329e-02 1.3967106815291261e-04  7.1179046657555076e-02 2.2938214846902852e-02 -5.4980931699467536e-03  5.8426365133247470e-02 2.3120268770934455e-02 1.3642741098718577e-04  5.8575176132311703e-02 2.3045383231851534e-02 -5.4377863066986222e-03  8.3687955033128800e-02 2.2786553971272244e-02 1.4284972453557524e-04  8.3781815813648020e-02 2.2754254051200688e-02 -5.4985236552209521e-03  9.6284289135993545e-02 2.2591498783701622e-02 1.4656893861165706e-04  9.6357069063501555e-02 2.2574145151760684e-02 -5.4753391637627716e-03  1.0884506625624404e-01 2.2445745463160686e-02 1.5094216359081705e-04  1.0890324565281310e-01 2.2439561493342374e-02 -5.4517029460167702e-03  1.2138586118952026e-01 2.2377149696287981e-02 1.5541240330951475e-04  1.2143446589047512e-01 2.2378832378950737e-02 -5.4466180720280019e-03  1.3393233987283296e-01 2.2422793755248829e-02 1.5808066069687246e-04  1.3397372162661497e-01 2.2428905845045349e-02 -5.4859524642701038e-03  7.0338341626169615e-02 1.7400298945014069e-02 1.4037103371044519e-04  7.0463902749698423e-02 1.7359806334662185e-02 -5.5433280442901342e-03  5.7442220901444033e-02 1.7484493732404432e-02 1.3825604792765239e-04  5.7598079446811966e-02 1.7426280578205475e-02 -5.5052130597534246e-03  8.3170848830669719e-02 1.7233008939856048e-02 1.4282342055492016e-04  8.3267965034350827e-02 1.7207306520773652e-02 -5.5262600199807036e-03  9.5909479941331144e-02 1.7063193421087305e-02 1.4612560048601488e-04  9.5984132721397677e-02 1.7048998640503722e-02 -5.4900045080898789e-03  1.0856341039620004e-01 1.6933130346366142e-02 1.5024017261311445e-04  1.0862237562421655e-01 1.6927456241866378e-02 -5.4567378326333890e-03  1.2116488539615879e-01 1.6873696915571963e-02 1.5440829685351408e-04  1.2121325632533185e-01 1.6873854694491628e-02 -5.4445360954304437e-03  1.3376193380592274e-01 1.6931242795207774e-02 1.5643390435379461e-04  1.3380199032602508e-01 1.6934201536573365e-02 -5.4794681984223718e-03  6.9700285044555929e-02 1.1700606580455205e-02 1.4183433318340599e-04  6.9831498767639791e-02 1.1673026891801733e-02 -5.5962511437810400e-03  5.6617481185759787e-02 1.1737971222712943e-02 1.4106897054198825e-04  5.6780597240436700e-02 1.1698829778872686e-02 -5.5818588709381049e-03  8.2692816993534715e-02 1.1587884343013471e-02 1.4325096552594149e-04  8.2793946818023323e-02 1.1570107367391074e-02 -5.5597525704046552e-03  9.5551468238500803e-02 1.1465794297045339e-02 1.4588092226174652e-04  9.5628780972555311e-02 1.1455718175921080e-02 -5.5085357871294269e-03  1.0828705065306607e-01 1.1370087945226719e-02 1.4956496000385390e-04  1.0834763566661262e-01 1.1365725431170029e-02 -5.4641704007676872e-03  1.2094246770963228e-01 1.1327692913776621e-02 1.5334574016607984e-04  1.2099160599031561e-01 1.1327191792652565e-02 -5.4442780166896708e-03  1.3358687331212199e-01 1.1379544759107340e-02 1.5471358054695316e-04  1.3362680189915488e-01 1.1380669079746083e-02 -5.4757792279412623e-03  6.9270204224042078e-02 5.9365196255161210e-03 1.4306517384161274e-04  6.9405482694630719e-02 5.9226728064382455e-03 -5.6366471294698054e-03  5.6081201232022801e-02 5.9474117064438441e-03 1.4341022667227617e-04  5.6249238512602003e-02 5.9281715531906854e-03 -5.6392616840936502e-03  8.2361210948406274e-02 5.8811152023220126e-03 1.4357513801729950e-04  8.2465403488999958e-02 5.8719512619397791e-03 -5.5858658339985280e-03  9.5297250182941245e-02 5.8185341925759936e-03 1.4558293719005812e-04  9.5376741598194051e-02 5.8131188848013536e-03 -5.5234586909955049e-03  1.0808682637562146e-01 5.7692600228227593e-03 1.4885605332868795e-04  1.0814889963723825e-01 5.7666521048268422e-03 -5.4707560309832145e-03  1.2077844811794462e-01 5.7485805729573418e-03 1.5229481372667984e-04  1.2082851607721437e-01 5.7478572747358498e-03 -5.4452321828752448e-03  1.3345664073496624e-01 5.7791362347187087e-03 1.5313460634030932e-04  1.3349684645083182e-01 5.7791104792783189e-03 -5.4746175075610082e-03  6.9113461482850413e-02 1.4372306700016500e-04 1.4372306700016202e-04  6.9250228398326591e-02 1.4377931400748551e-04 -5.6521231964108973e-03  5.5890078762949207e-02 1.4493644812426423e-04 1.4493644812426607e-04  5.6059691928767676e-02 1.4562396773464532e-04 -5.6606302441539070e-03  8.2237959601910465e-02 1.4356784751723967e-04 1.4356784751724509e-04  8.2343423732112106e-02 1.4322744590353803e-04 -5.5962417400351556e-03  9.5201071676528165e-02 1.4513493315525017e-04 1.4513493315524857e-04  9.5281588865443995e-02 1.4457396103444172e-04 -5.5297476697637885e-03  1.0800976353126711e-01 1.4811819381171801e-04 1.4811819381171966e-04  1.0807264263159050e-01 1.4742445197505507e-04 -5.4739742204117717e-03  1.2071420431760430e-01 1.5132508985612577e-04 1.5132508985612401e-04  1.2076487577376920e-01 1.5053203254744940e-04 -5.4464082827031177e-03  1.3340556202236115e-01 1.5183162896800420e-04 1.5183162896799425e-04  1.3344603629934526e-01 1.5091215558164762e-04 -5.4751804483381033e-03  6.9250228398326605e-02 -5.6521231964109051e-03 1.4377931400748553e-04  6.9385683590205402e-02 -5.6383653485432058e-03 -5.6383653485432058e-03  5.6059691928767669e-02 -5.6606302441539087e-03 1.4562396773464846e-04  5.6227356695209889e-02 -5.6403031202723452e-03 -5.6403031202723513e-03  8.2343423732112120e-02 -5.5962417400351634e-03 1.4322744590354071e-04  8.2448141929148969e-02 -5.5878769348391014e-03 -5.5878769348391092e-03  9.5281588865443967e-02 -5.5297476697637911e-03 1.4457396103443175e-04  9.5361770861228171e-02 -5.5255177414637070e-03 -5.5255177414637114e-03  1.0807264263159050e-01 -5.4739742204117847e-03 1.4742445197505691e-04  1.0813545672785080e-01 -5.4727901851267299e-03 -5.4727901851267342e-03  1.2076487577376922e-01 -5.4464082827031341e-03 1.5053203254744837e-04  1.2081565381593667e-01 -5.4472926924029113e-03 -5.4472926924029001e-03  1.3344603629934523e-01 -5.4751804483381154e-03 1.5091215558165531e-04  1.3348664794223630e-01 -5.4770193438841786e-03 -5.4770193438841734e-03  6.9661235187595039e-02 -1.1425370855835674e-02 1.4337063621706623e-04  6.9792950473957574e-02 -1.1398387509721240e-02 -5.5992119674986573e-03  5.6574840127156627e-02 -1.1461614283695656e-02 1.4554193700380786e-04  5.6737438292580329e-02 -1.1422156146618198e-02 -5.5834410054712898e-03  8.2658371284304519e-02 -1.1309356004453146e-02 1.4271288075137477e-04  8.2760614240230512e-02 -1.1292653252652994e-02 -5.5633518065659670e-03  9.5521298587129683e-02 -1.1180928020908483e-02 1.4405160178150564e-04  9.5599990589410155e-02 -1.1172169568672490e-02 -5.5122910880401315e-03  1.0825992235745882e-01 -1.1077225698128980e-02 1.4691375099760368e-04  1.0832195115221915e-01 -1.1074361872618923e-02 -5.4679209490909632e-03  1.2091677896948270e-01 -1.1026765908100001e-02 1.5003754477532167e-04  1.2096728793637375e-01 -1.1027920197078869e-02 -5.4481107218634986e-03  1.3356634557110916e-01 -1.1074516892781812e-02 1.5046273586899543e-04  1.3360709978249105e-01 -1.1077568909941790e-02 -5.4802914682416416e-03  7.0282553055285635e-02 -1.7139451124388139e-02 1.4287807930102027e-04  7.0409164606503122e-02 -1.7100122401691405e-02 -5.5467139105048573e-03  5.7379686480727200e-02 -1.7228137384411521e-02 1.4498632578758359e-04  5.7535260478250118e-02 -1.7170591967270023e-02 -5.5064626707989383e-03  8.3122357828342250e-02 -1.6963011796763103e-02 1.4236551105350283e-04  8.3221256771405114e-02 -1.6938624369613926e-02 -5.5307241156330698e-03  9.5867142667453609e-02 -1.6782833218710744e-02 1.4381118242905169e-04  9.5943846800182767e-02 -1.6770014002960264e-02 -5.4948428667540988e-03  1.0852543556826902e-01 -1.6642753962828369e-02 1.4674823228944916e-04  1.0858646819165341e-01 -1.6638596691551502e-02 -5.4616677090286690e-03  1.2112941337142537e-01 -1.6574154117503459e-02 1.4995626797093326e-04  1.2117970539052014e-01 -1.6575987368316066e-02 -5.4496442465944810e-03  1.3373252180840275e-01 -1.6623938302472194e-02 1.5053241620042145e-04  1.3377384770798995e-01 -1.6628867039707809e-02 -5.4855831267674919e-03  7.0991259683194238e-02 -2.2742324889195354e-02 1.4311280927241452e-04  7.1113522525181702e-02 -2.2692340658983887e-02 -5.5012250241622271e-03  5.8347849870062474e-02 -2.2890812259599328e-02 1.4479250620148641e-04  5.8496908393161018e-02 -2.2817524052054158e-02 -5.4382206549802251e-03  8.3630045911382844e-02 -2.2521979849865283e-02 1.4277964346760125e-04  8.3726389609098797e-02 -2.2491033164457983e-02 -5.5031373828736572e-03  9.6233162394116140e-02 -2.2312741173400045e-02 1.4417740325254656e-04  9.6308623305273580e-02 -2.2296591393221491e-02 -5.4806409046362766e-03  1.0879848698363496e-01 -2.2155707674864661e-02 1.4702393049201236e-04  1.0885925483079202e-01 -2.2150833463173685e-02 -5.4572888122734840e-03  1.2134258342507562e-01 -2.2077994457599760e-02 1.5034316761940560e-04  1.2139350072273734e-01 -2.2081231955022356e-02 -5.4524280121808107e-03  1.3389471685196724e-01 -2.2111999856134289e-02 1.5113080488292978e-04  1.3393781821472175e-01 -2.2119933540278493e-02 -5.4930273683837611e-03  7.1589635295964515e-02 -2.8175556553260563e-02 1.4530813445585728e-04  7.1712034129867652e-02 -2.8118056402317085e-02 -5.4918391114735579e-03  5.9237994983825849e-02 -2.8341806889254806e-02 1.4665790696000313e-04  5.9385638806380731e-02 -2.8257444433780192e-02 -5.4217671220479534e-03  8.4030509819235336e-02 -2.7958134569498454e-02 1.4473510561437494e-04  8.4127916205012601e-02 -2.7922590452132294e-02 -5.4985012828895731e-03  9.6507525064254529e-02 -2.7759162685290124e-02 1.4562640381841086e-04  9.6584535299225713e-02 -2.7740787277448116e-02 -5.4790062158972287e-03  1.0905839426659039e-01 -2.7607174711286989e-02 -5.4577546774210893e-03  1.2154406236394905e-01 -2.7542425048735501e-02 -5.4548572212527770e-03  1.3404709811296675e-01 -2.7556455249101997e-02 -5.4995520656972033e-03  7.1807335525125165e-02 -3.3400686600285175e-02 1.4915421372190527e-04  7.1940660613392521e-02 -3.3340135981082486e-02 -5.5585855543516926e-03  5.9664871009533917e-02 -3.3471831306370707e-02 1.5129802764657198e-04  5.9824210513664634e-02 -3.3383198509232812e-02 -5.5176908727125320e-03  8.4138304430622785e-02 -3.3266429767442936e-02 1.4757333046126728e-04  8.4245154154735616e-02 -3.3229008393935396e-02 -5.5407256490065046e-03  9.6564850285543735e-02 -3.3131923745160906e-02 1.4771929507544437e-04  9.6649874421757043e-02 -3.3112875694370700e-02 -5.5013929054349179e-03  1.0910575636771791e-01 -3.3023847031423567e-02 -5.4641985694501120e-03  7.2143449197748122e-02 2.8200135560341982e-02 -1.1085335133001110e-02  7.2398605865347854e-02 3.3453813235030293e-02 -1.1197101558499914e-02  6.0375131277396209e-02 3.3407294917546695e-02 -1.1118215764503149e-02  5.9914213725560689e-02 2.8232111876188768e-02 -1.0955837865385443e-02  8.4472559041296164e-02 2.8088174554080594e-02 -1.1100099740885536e-02  8.4615084427637613e-02 3.3414282633091597e-02 -1.1169954521199116e-02  9.6862232169382431e-02 2.7969499671866977e-02 -1.1069137261550361e-02  9.6950058999468125e-02 3.3353996108366021e-02 -1.1105714077298998e-02  1.0929107171971787e-01 2.7883845660605110e-02 -1.1036334708458889e-02  1.0935831452854788e-01 3.3310005683424342e-02 -1.1046510247037955e-02  1.2174898339819260e-01 2.7855737650210047e-02 -1.1036835175272068e-02  1.2181023538646975e-01 3.3303115980524649e-02 -1.1026999727343986e-02  1.3423048839185361e-01 2.7901977840895733e-02 -1.1117089220110846e-02  1.3428937817041742e-01 3.3328118017411340e-02 -1.1103583914413878e-02  7.1543495412077718e-02 2.2791111254852333e-02 -1.1110658882619601e-02  5.9028273724255148e-02 2.2828992068711858e-02 -1.1000137842002067e-02  8.4065403463484387e-02 2.2663144883318657e-02 -1.1112957817919990e-02  9.6577614232989939e-02 2.2525834359058042e-02 -1.1074251703011840e-02  1.0908055869752820e-01 2.2423093359156376e-02 -1.1036412519099606e-02  1.2158412315449538e-01 2.2385068030942330e-02 -1.1032013168977423e-02  1.3410083923382260e-01 2.2448108882471240e-02 -1.1103466112305553e-02  7.0842602442769367e-02 1.7244138041068561e-02 -1.1204451243368130e-02  5.8071965127434975e-02 1.7257688115476850e-02 -1.1141893651902234e-02  8.3560155046541032e-02 1.7134951328632898e-02 -1.1169616552534595e-02  9.6209085041274039e-02 1.7009861827787728e-02 -1.1103596977888097e-02  1.0880099098272956e-01 1.6912809017787155e-02 -1.1045913986958160e-02  1.2136139726889100e-01 1.6876150128704893e-02 -1.1027003336805103e-02  1.3392409478889164e-01 1.6945019093945843e-02 -1.1089089588076384e-02  7.0226416508272813e-02 1.1594012951201906e-02 -1.1312090179841111e-02  5.7275907972458379e-02 1.1584816376084913e-02 -1.1299650569367114e-02  8.3097163301165552e-02 1.1520179267859101e-02 -1.1236773694003636e-02  9.5860574095049472e-02 1.1428283457528108e-02 -1.1139995611487751e-02  1.0852995759122541e-01 1.1354889306880230e-02 -1.1059719917918024e-02  1.2114091463458573e-01 1.1327712166299728e-02 -1.1025137562542824e-02  1.3374725436111601e-01 1.1386431810512443e-02 -1.1079519730061455e-02  6.9812133550516089e-02 5.8826134449218564e-03 -1.1393816399436464e-02  5.6759267637156968e-02 5.8709844313008476e-03 -1.1417140476352816e-02  8.2777031900905476e-02 5.8463600062652367e-03 -1.1288794112153775e-02  9.5614106213595382e-02 5.7988329230815022e-03 -1.1169008306568379e-02  1.0833461897848061e-01 5.7607486097505396e-03 -1.1071721400210260e-02  1.2097949981330329e-01 5.7476765393723681e-03 -1.1025575262728493e-02  1.3361704660580323e-01 5.7814642060861048e-03 -1.1074971601036340e-02  6.9661235187595039e-02 1.4337063621707612e-04 -1.1425370855835663e-02  5.6574840127156627e-02 1.4554193700379384e-04 -1.1461614283695644e-02  8.2658371284304519e-02 1.4271288075137027e-04 -1.1309356004453139e-02  9.5521298587129683e-02 1.4405160178150323e-04 -1.1180928020908469e-02  1.0825992235745881e-01 1.4691375099760957e-04 -1.1077225698128966e-02  1.2091677896948276e-01 1.5003754477530782e-04 -1.1026765908100020e-02  1.3356634557110922e-01 1.5046273586896778e-04 -1.1074516892781803e-02  6.9792950473957560e-02 -5.5992119674986469e-03 -1.1398387509721242e-02  5.6737438292580336e-02 -5.5834410054712916e-03 -1.1422156146618201e-02  8.2760614240230512e-02 -5.5633518065659558e-03 -1.1292653252652994e-02  9.5599990589410155e-02 -5.5122910880401367e-03 -1.1172169568672501e-02  1.0832195115221913e-01 -5.4679209490909519e-03 -1.1074361872618935e-02  1.2096728793637379e-01 -5.4481107218635237e-03 -1.1027920197078876e-02  1.3360709978249113e-01 -5.4802914682416486e-03 -1.1077568909941769e-02  7.0189322445183694e-02 -1.1320431479590339e-02 -1.1320431479590356e-02  5.7233257689173977e-02 -1.1308799647413314e-02 -1.1308799647413329e-02  8.3065587427826951e-02 -1.1243829011079143e-02 -1.1243829011079145e-02  9.5833472076946882e-02 -1.1145796684795841e-02 -1.1145796684795853e-02  1.0850576290130606e-01 -1.1064582733589588e-02 -1.1064582733589583e-02  1.2111782731376711e-01 -1.1029467043031437e-02 -1.1029467043031427e-02  1.3372804584133036e-01 -1.1084301120219995e-02 -1.1084301120219995e-02  7.0790469768495026e-02 -1.6985448358064592e-02 -1.1215112608412570e-02  5.8010772731475313e-02 -1.7002766716826229e-02 -1.1153451089917778e-02  8.3516178612787303e-02 -1.6867235837965521e-02 -1.1178732052551767e-02  9.6171250156179763e-02 -1.6731818747956085e-02 -1.1111177725431340e-02  1.0876716591028390e-01 -1.6624979965580187e-02 -1.1052316582777961e-02  1.2132952627027793e-01 -1.6579341731501589e-02 -1.1032723626947769e-02  1.3389668009444675e-01 -1.6640703207058499e-02 -1.1095369572012416e-02  7.1481894908568280e-02 -2.2545726057741612e-02 -1.1122106882518183e-02  5.8953302638443839e-02 -2.2601436382785396e-02 -1.1012228608524594e-02  8.4013646953971066e-02 -2.2400421753233979e-02 -1.1122954440301014e-02  9.6532259614446905e-02 -2.2248830344962764e-02 -1.1082748988749079e-02  1.0903908527070305e-01 -2.2135158476472100e-02 -1.1043684597587989e-02  1.2154512252803204e-01 -2.2088488506704303e-02 -1.1038496080707481e-02  1.3406588528941588e-01 -2.2140083655143521e-02 -1.1110519119330083e-02  7.2081165031967917e-02 -2.7949298392858774e-02 -1.1097292620791455e-02  5.9838404801348541e-02 -2.8007551593100973e-02 -1.0968658940056691e-02  8.4418480052252887e-02 -2.7818870017608011e-02 -1.1110586648029053e-02  9.6812801554043815e-02 -2.7686985844507420e-02 -1.1078187302523478e-02  1.0924385964228399e-01 -2.7591606998453092e-02 -1.1044218520057171e-02  1.2170327663351016e-01 -2.7556305327009523e-02 -1.1043669639050433e-02  1.3418678944500409e-01 -2.7589789892943157e-02 -1.1124085343330963e-02  7.2343516773861735e-02 -3.3166331773390512e-02 -1.1215660917126774e-02  6.0314175148667444e-02 -3.3125740538154459e-02 -1.1139990397582287e-02  8.4563889006469675e-02 -3.3122420514176174e-02 -1.1185079173820143e-02  9.6901193583650236e-02 -3.3058495286423011e-02 -1.1117858037596332e-02  1.0931068661267881e-01 -3.3010876201733375e-02 -1.1056344549502726e-02  7.2698346819367349e-02 2.7964601235353492e-02 -1.6611884408294766e-02  7.3002440398790877e-02 3.3207289074287834e-02 -1.6739087429283435e-02  6.1135014910134455e-02 3.3035022862625767e-02 -1.6619320464347977e-02  6.0617440315760919e-02 2.7875293870214916e-02 -1.6432126901506999e-02  8.4899112153768636e-02 2.7946318372681564e-02 -1.6643005729287716e-02  8.5081296240834034e-02 3.3265356797866928e-02 -1.6721920463070798e-02  9.7191570185974976e-02 2.7897497296781273e-02 -1.6615429263259752e-02  9.7311214714081593e-02 3.3278858985769606e-02 -1.6656819959353114e-02  1.0955537606570578e-01 2.7864027751544850e-02 -1.6585327005455671e-02  1.0964935088156681e-01 3.3292146474965430e-02 -1.6597473224974880e-02  1.2197466523409321e-01 2.7875404947699172e-02 -1.6594897191372866e-02  1.2206116577360955e-01 3.3333377271487101e-02 -1.6584632866490839e-02  1.3442939549451519e-01 2.7948901646607328e-02 -1.6694898282964377e-02  1.3451864731222149e-01 3.3399866199172235e-02 -1.6679867470326855e-02  7.2099046779781864e-02 2.2588426310454487e-02 -1.66660