<?xml version="1.0"?>
<VTKFile type="UnstructuredGrid"  version="0.1"  >
<UnstructuredGrid>
<Piece  NumberOfPoints="649" NumberOfCells="2662">
<Points>
<DataArray  type="Float64"  NumberOfComponents="3"  format="ascii">0 0 0  0.08333333333333333 0 0  0.08333333333333333 0.08333333333333333 0  0.08333333333333333 0.08333333333333333 0.08333333333333333  0.08333333333333333 0 0.08333333333333333  0 0 0.08333333333333333  0 0.08333333333333333 0  0 0.08333333333333333 0.08333333333333333  0.1666666666666667 0 0  0.1666666666666667 0.08333333333333333 0  0.1666666666666667 0.08333333333333333 0.08333333333333333  0.1666666666666667 0 0.08333333333333333  0.25 0 0  0.25 0.08333333333333333 0  0.25 0.08333333333333333 0.08333333333333333  0.25 0 0.08333333333333333  0.3333333333333333 0 0  0.3333333333333333 0.08333333333333333 0  0.3333333333333333 0.08333333333333333 0.08333333333333333  0.3333333333333333 0 0.08333333333333333  0.4166666666666667 0 0  0.4166666666666667 0.08333333333333333 0  0.4166666666666667 0.08333333333333333 0.08333333333333333  0.4166666666666667 0 0.08333333333333333  0.5 0 0  0.5 0.08333333333333333 0  0.5 0.08333333333333333 0.08333333333333333  0.5 0 0.08333333333333333  0.08333333333333333 0.1666666666666667 0  0.08333333333333333 0.1666666666666667 0.08333333333333333  0 0.1666666666666667 0  0 0.1666666666666667 0.08333333333333333  0.1666666666666667 0.1666666666666667 0  0.1666666666666667 0.1666666666666667 0.08333333333333333  0.25 0.1666666666666667 0  0.25 0.1666666666666667 0.08333333333333333  0.3333333333333333 0.1666666666666667 0  0.3333333333333333 0.1666666666666667 0.08333333333333333  0.4166666666666667 0.1666666666666667 0  0.4166666666666667 0.1666666666666667 0.08333333333333333  0.5 0.1666666666666667 0  0.5 0.1666666666666667 0.08333333333333333  0.08333333333333333 0.25 0  0.08333333333333333 0.25 0.08333333333333333  0 0.25 0  0 0.25 0.08333333333333333  0.1666666666666667 0.25 0  0.1666666666666667 0.25 0.08333333333333333  0.25 0.25 0  0.25 0.25 0.08333333333333333  0.3333333333333333 0.25 0  0.3333333333333333 0.25 0.08333333333333333  0.4166666666666667 0.25 0  0.4166666666666667 0.25 0.08333333333333333  0.5 0.25 0  0.5 0.25 0.08333333333333333  0.08333333333333333 0.3333333333333333 0  0.08333333333333333 0.3333333333333333 0.08333333333333333  0 0.3333333333333333 0  0 0.3333333333333333 0.08333333333333333  0.1666666666666667 0.3333333333333333 0  0.1666666666666667 0.3333333333333333 0.08333333333333333  0.25 0.3333333333333333 0  0.25 0.3333333333333333 0.08333333333333333  0.3333333333333333 0.3333333333333333 0  0.3333333333333333 0.3333333333333333 0.08333333333333333  0.4166666666666667 0.3333333333333333 0  0.4166666666666667 0.3333333333333333 0.08333333333333333  0.5 0.3333333333333333 0  0.5 0.3333333333333333 0.08333333333333333  0.08333333333333333 0.4166666666666667 0  0.08333333333333333 0.4166666666666667 0.08333333333333333  0 0.4166666666666667 0  0 0.4166666666666667 0.08333333333333333  0.1666666666666667 0.4166666666666667 0  0.1666666666666667 0.4166666666666667 0.08333333333333333  0.25 0.4166666666666667 0  0.25 0.4166666666666667 0.08333333333333333  0.3333333333333333 0.4166666666666667 0  0.3333333333333333 0.4166666666666667 0.08333333333333333  0.4166666666666667 0.4166666666666667 0  0.4166666666666667 0.4166666666666667 0.08333333333333333  0.5 0.4166666666666667 0  0.5 0.4166666666666667 0.08333333333333333  0.08333333333333333 0.5 0  0.08333333333333333 0.5 0.08333333333333333  0 0.5 0  0 0.5 0.08333333333333333  0.1666666666666667 0.5 0  0.1666666666666667 0.5 0.08333333333333333  0.25 0.5 0  0.25 0.5 0.08333333333333333  0.3333333333333333 0.5 0  0.3333333333333333 0.5 0.08333333333333333  0.4166666666666667 0.5 0  0.4166666666666667 0.5 0.08333333333333333  0.5 0.5 0  0.5 0.5 0.08333333333333333  0.08333333333333333 0.5833333333333334 0  0.08333333333333333 0.5833333333333334 0.08333333333333333  0 0.5833333333333334 0  0 0.5833333333333334 0.08333333333333333  0.1666666666666667 0.5833333333333334 0  0.1666666666666667 0.5833333333333334 0.08333333333333333  0.25 0.5833333333333334 0  0.25 0.5833333333333334 0.08333333333333333  0.3333333333333333 0.5833333333333334 0  0.3333333333333333 0.5833333333333334 0.08333333333333333  0.4166666666666667 0.5833333333333334 0  0.4166666666666667 0.5833333333333334 0.08333333333333333  0.5 0.5833333333333334 0  0.5 0.5833333333333334 0.08333333333333333  0.08333333333333333 0.6666666666666666 0  0.08333333333333333 0.6666666666666666 0.08333333333333333  0 0.6666666666666666 0  0 0.6666666666666666 0.08333333333333333  0.1666666666666667 0.6666666666666666 0  0.1666666666666667 0.6666666666666666 0.08333333333333333  0.25 0.6666666666666666 0  0.25 0.6666666666666666 0.08333333333333333  0.3333333333333333 0.6666666666666666 0  0.3333333333333333 0.6666666666666666 0.08333333333333333  0.4166666666666667 0.6666666666666666 0  0.4166666666666667 0.6666666666666666 0.08333333333333333  0.5 0.6666666666666666 0  0.5 0.6666666666666666 0.08333333333333333  0.08333333333333333 0.75 0  0.08333333333333333 0.75 0.08333333333333333  0 0.75 0  0 0.75 0.08333333333333333  0.1666666666666667 0.75 0  0.1666666666666667 0.75 0.08333333333333333  0.25 0.75 0  0.25 0.75 0.08333333333333333  0.3333333333333333 0.75 0  0.3333333333333333 0.75 0.08333333333333333  0.4166666666666667 0.75 0  0.4166666666666667 0.75 0.08333333333333333  0.5 0.75 0  0.5 0.75 0.08333333333333333  0.08333333333333333 0.8333333333333334 0  0.08333333333333333 0.8333333333333334 0.08333333333333333  0 0.8333333333333334 0  0 0.8333333333333334 0.08333333333333333  0.1666666666666667 0.8333333333333334 0  0.1666666666666667 0.8333333333333334 0.08333333333333333  0.25 0.8333333333333334 0  0.25 0.8333333333333334 0.08333333333333333  0.3333333333333333 0.8333333333333334 0  0.3333333333333333 0.8333333333333334 0.08333333333333333  0.4166666666666667 0.8333333333333334 0  0.4166666666666667 0.8333333333333334 0.08333333333333333  0.5 0.8333333333333334 0  0.5 0.8333333333333334 0.08333333333333333  0.08333333333333333 0.9166666666666666 0  0.08333333333333333 0.9166666666666666 0.08333333333333333  0 0.9166666666666666 0  0 0.9166666666666666 0.08333333333333333  0.1666666666666667 0.9166666666666666 0  0.1666666666666667 0.9166666666666666 0.08333333333333333  0.25 0.9166666666666666 0  0.25 0.9166666666666666 0.08333333333333333  0.3333333333333333 0.9166666666666666 0  0.3333333333333333 0.9166666666666666 0.08333333333333333  0.4166666666666667 0.9166666666666666 0  0.4166666666666667 0.9166666666666666 0.08333333333333333  0.5 0.9166666666666666 0  0.5 0.9166666666666666 0.08333333333333333  0.08333333333333333 1 0  0.08333333333333333 1 0.08333333333333333  0 1 0  0 1 0.08333333333333333  0.1666666666666667 1 0  0.1666666666666667 1 0.08333333333333333  0.25 1 0  0.25 1 0.08333333333333333  0.3333333333333333 1 0  0.3333333333333333 1 0.08333333333333333  0.4166666666666667 1 0  0.4166666666666667 1 0.08333333333333333  0.5 1 0  0.5 1 0.08333333333333333  0.08333333333333333 0.08333333333333333 0.1666666666666667  0.08333333333333333 0 0.1666666666666667  0 0 0.1666666666666667  0 0.08333333333333333 0.1666666666666667  0.1666666666666667 0.08333333333333333 0.1666666666666667  0.1666666666666667 0 0.1666666666666667  0.25 0.08333333333333333 0.1666666666666667  0.25 0 0.1666666666666667  0.3333333333333333 0.08333333333333333 0.1666666666666667  0.3333333333333333 0 0.1666666666666667  0.4166666666666667 0.08333333333333333 0.1666666666666667  0.4166666666666667 0 0.1666666666666667  0.5 0.08333333333333333 0.1666666666666667  0.5 0 0.1666666666666667  0.08333333333333333 0.1666666666666667 0.1666666666666667  0 0.1666666666666667 0.1666666666666667  0.1666666666666667 0.1666666666666667 0.1666666666666667  0.25 0.1666666666666667 0.1666666666666667  0.3333333333333333 0.1666666666666667 0.1666666666666667  0.4166666666666667 0.1666666666666667 0.1666666666666667  0.5 0.1666666666666667 0.1666666666666667  0.08333333333333333 0.25 0.1666666666666667  0 0.25 0.1666666666666667  0.1666666666666667 0.25 0.1666666666666667  0.25 0.25 0.1666666666666667  0.3333333333333333 0.25 0.1666666666666667  0.4166666666666667 0.25 0.1666666666666667  0.5 0.25 0.1666666666666667  0.08333333333333333 0.3333333333333333 0.1666666666666667  0 0.3333333333333333 0.1666666666666667  0.1666666666666667 0.3333333333333333 0.1666666666666667  0.25 0.3333333333333333 0.1666666666666667  0.3333333333333333 0.3333333333333333 0.1666666666666667  0.4166666666666667 0.3333333333333333 0.1666666666666667  0.5 0.3333333333333333 0.1666666666666667  0.08333333333333333 0.4166666666666667 0.1666666666666667  0 0.4166666666666667 0.1666666666666667  0.1666666666666667 0.4166666666666667 0.1666666666666667  0.25 0.4166666666666667 0.1666666666666667  0.3333333333333333 0.4166666666666667 0.1666666666666667  0.4166666666666667 0.4166666666666667 0.1666666666666667  0.5 0.4166666666666667 0.1666666666666667  0.08333333333333333 0.5 0.1666666666666667  0 0.5 0.1666666666666667  0.1666666666666667 0.5 0.1666666666666667  0.25 0.5 0.1666666666666667  0.3333333333333333 0.5 0.1666666666666667  0.4166666666666667 0.5 0.1666666666666667  0.5 0.5 0.1666666666666667  0.08333333333333333 0.5833333333333334 0.1666666666666667  0 0.5833333333333334 0.1666666666666667  0.1666666666666667 0.5833333333333334 0.1666666666666667  0.25 0.5833333333333334 0.1666666666666667  0.3333333333333333 0.5833333333333334 0.1666666666666667  0.4166666666666667 0.5833333333333334 0.1666666666666667  0.5 0.5833333333333334 0.1666666666666667  0.08333333333333333 0.6666666666666666 0.1666666666666667  0 0.6666666666666666 0.1666666666666667  0.1666666666666667 0.6666666666666666 0.1666666666666667  0.25 0.6666666666666666 0.1666666666666667  0.3333333333333333 0.6666666666666666 0.1666666666666667  0.4166666666666667 0.6666666666666666 0.1666666666666667  0.5 0.6666666666666666 0
[...]
<PointData  Vectors="f_18"> 
<DataArray  type="Float64"  Name="f_18"  NumberOfComponents="3" format="ascii">0.0000000000000000e+00 0.0000000000000000e+00 0.0000000000000000e+00  1.5801879693018790e-02 1.7746838540247094e-02 1.7746838540247101e-02  1.1148896180716820e-02 1.2216919009077900e-02 1.8162320298753327e-02  6.6345258581687883e-03 1.2281455343916394e-02 1.2281455343916397e-02  1.1148896180716810e-02 1.8162320298753323e-02 1.2216919009077907e-02  0.0000000000000000e+00 0.0000000000000000e+00 0.0000000000000000e+00  0.0000000000000000e+00 0.0000000000000000e+00 0.0000000000000000e+00  0.0000000000000000e+00 0.0000000000000000e+00 0.0000000000000000e+00  2.5124968396904149e-02 2.4093588207584029e-02 2.4093588207584005e-02  2.1366439041078829e-02 1.9337666354449473e-02 2.4641857594212530e-02  1.7764390846514863e-02 1.9262587357754605e-02 1.9262587357754601e-02  2.1366439041078839e-02 2.4641857594212523e-02 1.9337666354449484e-02  3.3987518365890347e-02 2.7808123198091655e-02 2.7808123198091634e-02  3.1389879831682302e-02 2.3280005504764421e-02 2.8143017518593341e-02  2.9001310755602513e-02 2.3195002203002208e-02 2.3195002203002215e-02  3.1389879831682295e-02 2.8143017518593320e-02 2.3280005504764435e-02  4.3306829009572619e-02 3.0063502562170261e-02 3.0063502562170268e-02  4.1571957433319269e-02 2.5472207880980858e-02 3.0274634552540671e-02  4.0002647639374521e-02 2.5406469742705291e-02 2.5406469742705294e-02  4.1571957433319283e-02 3.0274634552540657e-02 2.5472207880980865e-02  5.3258386213612049e-02 3.1431908655510973e-02 3.1431908655510966e-02  5.2123122371592952e-02 2.6674626875780462e-02 3.1565558390171868e-02  5.1102473293542679e-02 2.6625870644347075e-02 2.6625870644347068e-02  5.2123122371592952e-02 3.1565558390171874e-02 2.6674626875780462e-02  6.3827687152605450e-02 3.2244886521292399e-02 3.2244886521292357e-02  6.3096537478931208e-02 2.7305276877838899e-02 3.2327359134405341e-02  6.2442089994315025e-02 2.7270182452749429e-02 2.7270182452749429e-02  6.3096537478931222e-02 3.2327359134405320e-02 2.7305276877838902e-02  1.0133736879531318e-02 8.5215453692520683e-03 1.9245879621736479e-02  5.4662305198182777e-03 8.1866085355821652e-03 1.3039036941260891e-02  0.0000000000000000e+00 0.0000000000000000e+00 0.0000000000000000e+00  0.0000000000000000e+00 0.0000000000000000e+00 0.0000000000000000e+00  1.9352267323431979e-02 1.4774175086775542e-02 2.5737882536475937e-02  1.5667178962577369e-02 1.4458390996490527e-02 2.0156792962765371e-02  2.9331668524672522e-02 1.8543261720511923e-02 2.9039892370339777e-02  2.6955447887375993e-02 1.8217085140524617e-02 2.3913076505349712e-02  3.9867510361295294e-02 2.0625954731185964e-02 3.0914583839255053e-02  3.8358656038852093e-02 2.0353721912134966e-02 2.5926734970793598e-02  5.0828068344124455e-02 2.1701029517108079e-02 3.1997300786456302e-02  4.9875930223679615e-02 2.1496068982320888e-02 2.6976415941687159e-02  6.2153977268730128e-02 2.2202529837521853e-02 3.2606547126754773e-02  6.1560173734354406e-02 2.2058575220407172e-02 2.7493750766572445e-02  9.7752884047243513e-03 5.9105613364917441e-03 1.9914081361773264e-02  4.9427930765758290e-03 5.5799931121177510e-03 1.3630019448847711e-02  0.0000000000000000e+00 0.0000000000000000e+00 0.0000000000000000e+00  0.0000000000000000e+00 0.0000000000000000e+00 0.0000000000000000e+00  1.8309043662426916e-02 1.0624170909568444e-02 2.6779242150698990e-02  1.4528052168932905e-02 1.0249677026754153e-02 2.1080985322008139e-02  2.7923011197098259e-02 1.3753475066808957e-02 3.0043083492180794e-02  2.5557607626176749e-02 1.3357046193112700e-02 2.4823387540471639e-02  3.8469341898042866e-02 1.5561387774477639e-02 3.1714578669810353e-02  3.7023523100176536e-02 1.5214004327460857e-02 2.6659264614560585e-02  4.9629233753680592e-02 1.6487868128309116e-02 3.2576485417038392e-02  4.8751743662881784e-02 1.6216278170447841e-02 2.7509988221557799e-02  6.1203521294531396e-02 1.6892374231635261e-02 3.2999213870354455e-02  6.0677999384260425e-02 1.6696323860647393e-02 2.7855538467331405e-02  9.6362930087313028e-03 3.7746452197083501e-03 2.0355787678080904e-02  4.6851440015225222e-03 3.5288669059231588e-03 1.4041546146487919e-02  0.0000000000000000e+00 0.0000000000000000e+00 0.0000000000000000e+00  0.0000000000000000e+00 0.0000000000000000e+00 0.0000000000000000e+00  1.7778609827031208e-02 6.8914182384665354e-03 2.7529425707244527e-02  1.3900292172864334e-02 6.5932261636670779e-03 2.1786313376536564e-02  2.7058040089231374e-02 9.0884076291826276e-03 3.0846987289752829e-02  2.4676771760636467e-02 8.7608872447011866e-03 2.5578151227248956e-02  3.7487603014850775e-02 1.0415653295449918e-02 3.2410774487544876e-02  3.6083085023614542e-02 1.0116998678656283e-02 2.7316704311681365e-02  4.8704539617411162e-02 1.1108493420470166e-02 3.3111708490214074e-02  4.7888284295043410e-02 1.0867058373487393e-02 2.8017773960164562e-02  6.0419985431332916e-02 1.1405839106162266e-02 3.3378307622216080e-02  5.9954972232345138e-02 1.1227059900769373e-02 2.8216000273830484e-02  9.5795760419983868e-03 1.8719178437468103e-03 2.0611682687108789e-02  4.5586841873183695e-03 1.7266642208726602e-03 1.4281669397792667e-02  0.0000000000000000e+00 0.0000000000000000e+00 0.0000000000000000e+00  0.0000000000000000e+00 0.0000000000000000e+00 0.0000000000000000e+00  1.7520617649911866e-02 3.4338822575843597e-03 2.7972549473704693e-02  1.3575724125439715e-02 3.2651286099081495e-03 2.2212465579197115e-02  2.6593561920502655e-02 4.5662291906227474e-03 3.1351787496315370e-02  2.4192044832373884e-02 4.3775313240858862e-03 2.6060270994070364e-02  3.6915417178647006e-02 5.2701135205640622e-03 3.2870581183689358e-02  3.5530502326209634e-02 5.0956051184431073e-03 2.7755477414314309e-02  4.8130953528692740e-02 5.6440147591714151e-03 3.3478876574574955e-02  4.7352548396297073e-02 5.5004723213244490e-03 2.8368889133183656e-02  5.9910891248894024e-02 5.8045904667860717e-03 3.3646022915987485e-02  5.9486455424467524e-02 5.6964824165069367e-03 2.8472461906352962e-02  9.5548150401184549e-03 7.2560518557034006e-05 2.0698404527016042e-02  4.5114550148339727e-03 2.7192203228688394e-05 1.4362900779455408e-02  0.0000000000000000e+00 0.0000000000000000e+00 0.0000000000000000e+00  0.0000000000000000e+00 0.0000000000000000e+00 0.0000000000000000e+00  1.7435224570046572e-02 1.1122061082083676e-04 2.8123737413578796e-02  1.3465788216639374e-02 8.8038381286844965e-05 2.2357523104298525e-02  2.6442980821951467e-02 1.3191998868372762e-04 3.1530195543901310e-02  2.4030745969083118e-02 1.0920320604443536e-04 2.6229190209751715e-02  3.6724213608485802e-02 1.4284776006901690e-04 3.3037921591238126e-02  3.5343240113130975e-02 1.2533717950868954e-04 2.7912910457040543e-02  4.7932301887681814e-02 1.4747872029001333e-04 3.3615081191572388e-02  4.7166118841443568e-02 1.3417543629922320e-04 2.8496964271942263e-02  5.9728887951948584e-02 1.4872959031386710e-04 3.3746670105413219e-02  5.9318972067512479e-02 1.3870826354881884e-04 2.8567206421412628e-02  9.5469544923587439e-03 -1.7167371650835771e-03 2.0621788678310216e-02  4.5265389275436687e-03 -1.6691289415887919e-03 1.4290009847600619e-02  0.0000000000000000e+00 0.0000000000000000e+00 0.0000000000000000e+00  0.0000000000000000e+00 0.0000000000000000e+00 0.0000000000000000e+00  1.7496398249998740e-02 -3.2019421445792350e-03 2.7991192126915358e-02  1.3546144450383267e-02 -3.0821490552216265e-03 2.2225725564835024e-02  2.6579870390069055e-02 -4.2957256266219629e-03 3.1379584744306216e-02  2.4170491574450222e-02 -4.1533374133664886e-03 2.6077541950188399e-02  3.6901381668003795e-02 -4.9820233545200448e-03 3.2898340548672918e-02  3.5511803875660414e-02 -4.8427792711566095e-03 2.7771810765590824e-02  4.8112428471135199e-02 -5.3498813993774841e-03 3.3501068332884611e-02  4.7333321847819583e-02 -5.2326492059767051e-03 2.8381554252070736e-02  5.9888927674698167e-02 -5.5093758728039580e-03 3.3661846292160992e-02  5.9466080835173490e-02 -5.4206326709057631e-03 2.8481382304779874e-02  9.5664502727573382e-03 -3.5861196333052364e-03 2.0379407932583884e-02  4.6120157917203981e-03 -3.4608447112863512e-03 1.4058818374094855e-02  0.0000000000000000e+00 0.0000000000000000e+00 0.0000000000000000e+00  0.0000000000000000e+00 0.0000000000000000e+00 0.0000000000000000e+00  1.7737278510198566e-02 -6.6289999569220355e-03 2.7574067731601631e-02  1.3844595102233190e-02 -6.3861799669256815e-03 2.1818497730766957e-02  2.7034168753804828e-02 -8.7992205879994824e-03 3.0907740335502989e-02  2.4636628829220929e-02 -8.5195241052893958e-03 2.5615675531029267e-02  3.7458242778365812e-02 -1.0123038431683990e-02 3.2466354758947921e-02  3.6046340525328555e-02 -9.8590728331664750e-03 2.7348682639431569e-02  4.8665387392957407e-02 -1.0818801274028953e-02 3.3153799772931467e-02  4.7849544854577993e-02 -1.0601509465717021e-02 2.8041271774633746e-02  6.0375131277396202e-02 -1.1118215764503151e-02 3.3407294917546702e-02  5.9914213725560689e-02 -1.0955837865385452e-02 2.8232111876188772e-02  9.6709548066598178e-03 -5.6551076756884691e-03 1.9962185998097806e-02  4.8176485501272466e-03 -5.4864201122486276e-03 1.3662068530686090e-02  0.0000000000000000e+00 0.0000000000000000e+00 0.0000000000000000e+00  0.0000000000000000e+00 0.0000000000000000e+00 0.0000000000000000e+00  1.8271688401091914e-02 -1.0305156972023902e-02 2.6870577668406379e-02  1.4459868425298268e-02 -9.9886303276416500e-03 2.1146361366121569e-02  2.7892366269824009e-02 -1.3440894943612409e-02 3.0143544506818193e-02  2.5504383236639651e-02 -1.3089939913063313e-02 2.4883834612097561e-02  3.8419583376673762e-02 -1.5271126695570115e-02 3.1794448309389635e-02  3.6969136320630966e-02 -1.4952284412367870e-02 2.6703893044855764e-02  4.9565377557929821e-02 -1.6211525104235885e-02 3.2631859007211265e-02  4.8692845435810331e-02 -1.5956198292328080e-02 2.7540176398604392e-02  6.1135014910134435e-02 -1.6619320464347991e-02 3.3035022862625774e-02  6.0617440315760912e-02 -1.6432126901506999e-02 2.7875293870214923e-02  1.0058918343876500e-02 -8.1410663756657405e-03 1.9363141894111105e-02  5.3128892228696007e-03 -8.0059148455721291e-03 1.3116470629243409e-02  0.0000000000000000e+00 0.0000000000000000e+00 0.0000000000000000e+00  0.0000000000000000e+00 0.0000000000000000e+00 0.0000000000000000e+00  1.9348479432038174e-02 -1.4378645959061159e-02 2.5908032659853846e-02  1.5615308945081884e-02 -1.4098384769658983e-02 2.0271147760353110e-02  2.9283243287307841e-02 -1.8224404559822709e-02 2.9178390307847663e-02  2.6893267640437465e-02 -1.7926582383795832e-02 2.3997048613018778e-02  3.9785713434838707e-02 -2.0360212320882250e-02 3.1003969372441188e-02  3.8284513946211296e-02 -2.0098498483551164e-02 2.5974258123497566e-02  5.0736236259920089e-02 -2.1451734391313784e-02 3.2050571750103410e-02  4.9797377891424514e-02 -2.1246874124130500e-02 2.7004242643089527e-02  6.2063891946843593e-02 -2.1949821060369006e-02 3.2637326228888167e-02  6.1482805888030720e-02 -2.1802056370322450e-02 2.7510425444191237e-02  1.1351689720884990e-02 -1.1544943007491535e-02 1.8640113682416790e-02  6.6711930889614759e-03 -1.1624643954920497e-02 1.2582252513931401e-02  0.0000000000000000e+00 0.0000000000000000e+00 0.0000000000000000e+00  0.0000000000000000e+00 0.0000000000000000e+00 0.0000000000000000e+00  2.1373323129504691e-02 -1.8947648581752043e-02 2.4841276354361810e-02  1.7729687620162103e-02 -1.8932747573376364e-02 1.9420589063303881e-02  3.1278162405175503e-02 -2.3031771648290365e-02 2.8253628298297029e-02  2.8901280407449773e-02 -2.2970601561443954e-02 2.3241401531955638e-02  4.1443894797201120e-02 -2.5260582646904711e-02 3.0324474436238275e-02  3.9903278234273094e-02 -2.5186225921765518e-02 2.5421275264016652e-02  5.2004916528178499e-02 -2.6454978163216323e-02 3.1587867383677762e-02  5.1008370742119877e-02 -2.6389274744993065e-02 2.6633076129041328e-02  6.2990331887210593e-02 -2.7066505613874293e-02 3.2338355357999032e-02  6.2352980907584121e-02 -2.7016372154646470e-02 2.7275039569634348e-02  1.4803746493862006e-02 -1.7107421122759880e-02 1.7741060203674715e-02  1.0815274388227469e-02 -1.7809526877135395e-02 1.2580069829590595e-02  0.0000000000000000e+00 0.0000000000000000e+00 0.0000000000000000e+00  0.0000000000000000e+00 0.0000000000000000e+00 0.0000000000000000e+00  2.4545553889520885e-02 -2.3898179618922679e-02 2.4274318058937889e-02  2.1308345306633537e-02 -2.4449260525423129e-02 1.9301641270159688e-02  3.3626050315265589e-02 -2.7616810003264925e-02 2.7864052497505960e-02  3.1377163703186432e-02 -2.7941632451584746e-02 2.3229088219055654e-02  4.3071497179683435e-02 -2.9846704049678548e-02 3.0062100632520444e-02  4.1522661936941339e-02 -3.0049994882273286e-02 2.5453771144862389e-02  5.3088751552649895e-02 -3.1191609781143621e-02 3.1418544739994100e-02  5.2047200457825911e-02 -3.1320731789544462e-02 2.6672991383220084e-02  6.3692279650663500e-02 -3.1986276439018670e-02 3.2233965427258419e-02  6.3010785829176796e-02 -3.2066406919284376e-02 2.7309890147173874e-02  5.4662305198182846e-03 1.3039036941260896e-02 8.1866085355821617e-03  1.0133736879531322e-02 1.9245879621736475e-02 8.5215453692520787e-03  0.0000000000000000e+00 0.0000000000000000e+00 0.0000000000000000e+00  0.0000000000000000e+00 0.0000000000000000e+00 0.0000000000000000e+00  1.5667178962577365e-02 2.0156792962765371e-02 1.4458390996490532e-02  1.9352267323431965e-02 2.5737882536475933e-02 1.4774175086775549e-02  2.6955447887375993e-02 2.3913076505349712e-02 1.8217085140524610e-02  2.9331668524672529e-02 2.9039892370339774e-02 1.8543261720511926e-02  3.8358656038852086e-02 2.5926734970793605e-02 2.0353721912134960e-02  3.9867510361295294e-02 3.0914583839255053e-02 2.0625954731185968e-02  4.9875930223679636e-02 2.6976415941687166e-02 2.1496068982320891e-02  5.0828068344124455e-02 3.1997300786456288e-02 2.1701029517108093e-02  6.1560173734354427e-02 2.7493750766572449e-02 2.2058575220407172e-02  6.2153977268730141e-02 3.2606547126754773e-02 2.2202529837521870e-02  4.4549331511157626e-03 8.6483790244565577e-03 8.6483790244565543e-03  0.0000000000000000e+00 0.0000000000000000e+00 0.0000000000000000e+00  1.3519532598445164e-02 1.5014376825712784e-02 1.5014376825712789e-02  2.4814961994171599e-02 1.8711219923115138e-02 1.8711219923115134e-02  3.6665319068011418e-02 2.0710976575847934e-02 2.0710976575847945e-02  4.8640069293150220e-02 2.1734558554833767e-02 2.1734558554833756e-02  6.0688998226197700e-02 2.2209037105922196e-02 2.2209037105922182e-02  3.9406025202076171e-03 5.8009699781984550e-03 9.1241078918155062e-03  0.0000000000000000e+00 0.0000000000000000e+00 0.0000000000000000e+00  1.2391497219800386e-02 1.0534293799536756e-02 1.5719504939045805e-02  2.3372140477879333e-02 1.3633159622077505e-02 1.9423189322211092e-02  3.5282013263159932e-02 1.5424230889884967e-02 2.1300598597244251e-02  4.7488575617979346e-02 1.6358517785077152e-02 2.2169069164825719e-02  5.9797986622846730e-02 1.6784860630075046e-02 2.2505811192175412e-02  3.6787714103420853e-03 3.6308202496554707e-03 9.4949342269260353e-03  0.0000000000000000e+00 0.0000000000000000e+00 0.0000000000000000e+00  1.1761141614424368e-02 6.7131684791265564e-03 1.6296218506491791e-02  2.2463348637259871e-02 8.8907492992378150e-03 2.0047495392870093e-02  3.4310254230534659e-02 1.0218088633706971e-02 2.1852803017718726e-02  4.6605236889817631e-02 1.0935302234097754e-02 2.2600468395916593e-02  5.9067169543990619e-02 1.1268369053990241e-02 2.2814133980332853e-02  3.5462286729643364e-03 1.7717322566403494e-03 9.7196609123445001e-03  0.0000000000000000e+00 0.0000000000000000e+00 0.0000000000000000e+00  1.1429809738486686e-02 3.2998842525023453e-03 1.6658008405896499e-02  2.1964390487684945e-02 4.4236520867473031e-03 2.0455943972159756e-02  3.3741051979022600e-02 5.1316624950411508e-03 2.2228944663255683e-02  4.6058706358927060e-02 5.5239762426512601e-03 2.2904123197687469e-02  5.8594714497469939e-02 5.7096049098116358e-03 2.3037229117224223e-02  3.4941072839174384e-03 4.0340789285479223e-05 9.7951544381563345e-03  0.0000000000000000e+00 0.0000000000000000e+00 0.0000000000000000e+00  1.1314939683730553e-02 7.5320136724580256e-05 1.6781733425453957e-02  2.1798511636513571e-02 1.0595243480944190e-04 2.0600029928201161e-02  3.3548538388631796e-02 1.2258727967670875e-04 2.2364946502530791e-02  4.5868930516471243e-02 1.3165398614552884e-04 2.3015812149245488e-02  5.8426365133247476e-02 1.3642741098718306e-04 2.3120268770934472e-02  3.5057992106723580e-03 -1.6888023179882370e-03 9.7231789656404156e-03  0.0000000000000000e+00 0.0000000000000000e+00 0.0000000000000000e+00  1.1394351099782511e-02 -3.1403690654280428e-03 1.6664857039292855e-02  2.1942955833696234e-02 -4.2032592732920027e-03 2.0469147711840358e-02  3.3722139671518103e-02 -4.8827207316525902e-03 2.2243243391641535e-02  4.6039557570538445e-02 -5.2603146761872411e-03 2.2915763165074571e-02  5.8575176132311710e-02 -5.4377863066986274e-03 2.3045383231851551e-02  3.5876702040089745e-03 -3.5377717598091920e-03 9.5048753116170771e-03  0.0000000000000000e+00 0.0000000000000000e+00 0.0000000000000000e+00  1.1695601629988072e-02 -6.5199615848118564e-03 1.6314910947361067e-02  2.2424546877210027e-02 -8.6444040162521139e-03 2.0077464881950714e-02  3.4273383701914233e-02 -9.9596072501774730e-03 2.1881878358420977e-02  4.6567036723080185e-02 -1.0671892525563437e-02 2.2622546149109291e-02  5.9028273724255141e-02 -1.1000137842002064e-02 2.2828992068711883e-02  3.7846056458230607e-03 -5.6709180737329300e-03 9.1504064087389002e-03  0.0000000000000000e+00 0.0000000000000000e+00 0.0000000000000000e+00  1.2316707942327532e-02 -1.0260738170393935e-02 1.5762053235591506e-02  2.3322691039285970e-02 -1.3347695345774038e-02 1.9475327151155727e-02  3.5228177474166435e-02 -1.5157886310335685e-02 2.1343071617534223e-02  4.7431313621015589e-02 -1.6100332452225009e-02 2.2198149608694782e-02  5.9740556156405354e-02 -1.6524157987572532e-02 2.2523942772823092e-02  4.2555304206876934e-03 -8.3759971225354033e-03 8.7130101324056266e-03  0.0000000000000000e+00 0.0000000000000000e+00 0.0000000000000000e+00  1.3485163063265840e-02 -1.4605831955788273e-02 1.5101062066516086e-02  2.4765417391630934e-02 -1.8397698342693492e-02 1.8788345532964115e-02  3.6593543389373803e-02 -2.0461298063565104e-02 2.0761102083958795e-02  4.8564853506833025e-02 -2.1496075163821571e-02 2.1762401286074009e-02  6.0616342541913504e-02 -2.1960660087234293e-02 2.2224041687927919e-02  5.5551611515308697e-03 -1.2276193510526863e-02 8.3768026940002922e-03  0.0000000000000000e+00 0.0000000000000000e+00 0.0000000000000000e+00  1.5634548658741136e-02 -1.9793393825670011e-02 1.4585109517160345e-02  2.6850803572285222e-02 -2.3721523400806629e-02 1.8298301519848650e-02  3.8264732802205007e-02 -2.5729141922214392e-02 2.0388318212565183e-02  4.9795119307702321e-02 -2.6750256670223578e-02 2.1509184608295637e-02  6.1484678591463761e-02 -2.7244281301963647e-02 2.2064215139514270e-02  9.4544371802268261e-03 -1.8913071359660989e-02 8.4778658223671026e-03  0.0000000000000000e+00 0.0000000000000000e+00 0.0000000000000000e+00  1.9160764503254456e-02 -2.5607537878243585e-02 1.4829332489375662e-02  2.9288130890121999e-02 -2.8847285070143298e-02 1.8595358895633452e-02  3.9834151907089610e-02 -3.0678817262677977e-02 2.0646625868005548e-02  5.0779491285602565e-02 -3.1743972190701020e-02 2.1707941773182523e-02  6.2091715628285186e-02 -3.2341470378369638e-02 2.2207102889297545e-02  4.9427930765758290e-03 1.3630019448847709e-02 5.5799931121177501e-03  9.7752884047243513e-03 1.9914081361773257e-02 5.9105613364917259e-03  0.0000000000000000e+00 0.0000000000000000e+00 0.0000000000000000e+00  0.0000000000000000e+00 0.0000000000000000e+00 0.0000000000000000e+00  1.4528052168932902e-02 2.1080985322008142e-02 1.0249677026754155e-02  1.8309043662426912e-02 2.6779242150698990e-02 1.0624170909568440e-02  2.5557607626176735e-02 2.4823387540471639e-02 1.3357046193112690e-02  2.7923011197098266e-02 3.0043083492180794e-02 1.3753475066808955e-02  3.7023523100176543e-02 2.6659264614560578e-02 1.5214004327460846e-02  3.8469341898042846e-02 3.1714578669810346e-0