<?xml version="1.0"?>
<VTKFile type="UnstructuredGrid"  version="0.1"  >
<UnstructuredGrid>
<Piece  NumberOfPoints="629" NumberOfCells="2557">
<Points>
<DataArray  type="Float64"  NumberOfComponents="3"  format="ascii">0.5 0 0.4166666666666667  0.5833333333333334 0 0.4166666666666667  0.5833333333333334 0 0.5  0.5833333333333334 0.08333333333333333 0.5  0.5 0 0.5  0.5 0.08333333333333333 0.5  0.6666666666666666 0 0.5  0.6666666666666666 0.08333333333333333 0.5  0.5833333333333334 0.08333333333333333 0.5833333333333334  0.5833333333333334 0 0.5833333333333334  0.5 0 0.5833333333333334  0.5 0.08333333333333333 0.5833333333333334  0.6666666666666666 0.08333333333333333 0.5833333333333334  0.6666666666666666 0 0.5833333333333334  0.75 0 0.5  0.75 0.08333333333333333 0.5  0.75 0.08333333333333333 0.5833333333333334  0.75 0 0.5833333333333334  0.8333333333333334 0 0.5  0.8333333333333334 0.08333333333333333 0.5  0.8333333333333334 0.08333333333333333 0.5833333333333334  0.8333333333333334 0 0.5833333333333334  0.9166666666666666 0 0.5  0.9166666666666666 0.08333333333333333 0.5  0.9166666666666666 0.08333333333333333 0.5833333333333334  0.9166666666666666 0 0.5833333333333334  1 0 0.5  1 0.08333333333333333 0.5  1 0.08333333333333333 0.5833333333333334  1 0 0.5833333333333334  0.5833333333333334 0.1666666666666667 0.5  0.5833333333333334 0.1666666666666667 0.5833333333333334  0.5 0.1666666666666667 0.5  0.5 0.1666666666666667 0.5833333333333334  0.6666666666666666 0.1666666666666667 0.5  0.6666666666666666 0.1666666666666667 0.5833333333333334  0.75 0.1666666666666667 0.5  0.75 0.1666666666666667 0.5833333333333334  0.8333333333333334 0.1666666666666667 0.5  0.8333333333333334 0.1666666666666667 0.5833333333333334  0.9166666666666666 0.1666666666666667 0.5  0.9166666666666666 0.1666666666666667 0.5833333333333334  1 0.1666666666666667 0.5  1 0.1666666666666667 0.5833333333333334  0.5833333333333334 0.25 0.5  0.5833333333333334 0.25 0.5833333333333334  0.5 0.25 0.5  0.5 0.25 0.5833333333333334  0.6666666666666666 0.25 0.5  0.6666666666666666 0.25 0.5833333333333334  0.75 0.25 0.5  0.75 0.25 0.5833333333333334  0.8333333333333334 0.25 0.5  0.8333333333333334 0.25 0.5833333333333334  0.9166666666666666 0.25 0.5  0.9166666666666666 0.25 0.5833333333333334  1 0.25 0.5  1 0.25 0.5833333333333334  0.5833333333333334 0.3333333333333333 0.5  0.5833333333333334 0.3333333333333333 0.5833333333333334  0.5 0.3333333333333333 0.5  0.5 0.3333333333333333 0.5833333333333334  0.6666666666666666 0.3333333333333333 0.5  0.6666666666666666 0.3333333333333333 0.5833333333333334  0.75 0.3333333333333333 0.5  0.75 0.3333333333333333 0.5833333333333334  0.8333333333333334 0.3333333333333333 0.5  0.8333333333333334 0.3333333333333333 0.5833333333333334  0.9166666666666666 0.3333333333333333 0.5  0.9166666666666666 0.3333333333333333 0.5833333333333334  1 0.3333333333333333 0.5  1 0.3333333333333333 0.5833333333333334  0.5833333333333334 0.4166666666666667 0.5  0.5833333333333334 0.4166666666666667 0.5833333333333334  0.5 0.4166666666666667 0.5  0.5 0.4166666666666667 0.5833333333333334  0.6666666666666666 0.4166666666666667 0.5  0.6666666666666666 0.4166666666666667 0.5833333333333334  0.75 0.4166666666666667 0.5  0.75 0.4166666666666667 0.5833333333333334  0.8333333333333334 0.4166666666666667 0.5  0.8333333333333334 0.4166666666666667 0.5833333333333334  0.9166666666666666 0.4166666666666667 0.5  0.9166666666666666 0.4166666666666667 0.5833333333333334  1 0.4166666666666667 0.5  1 0.4166666666666667 0.5833333333333334  0.5833333333333334 0.5 0.5  0.5833333333333334 0.5 0.5833333333333334  0.5 0.5 0.5  0.5 0.5 0.5833333333333334  0.6666666666666666 0.5 0.5  0.6666666666666666 0.5 0.5833333333333334  0.75 0.5 0.5  0.75 0.5 0.5833333333333334  0.8333333333333334 0.5 0.5  0.8333333333333334 0.5 0.5833333333333334  0.9166666666666666 0.5 0.5  0.9166666666666666 0.5 0.5833333333333334  1 0.5 0.5  1 0.5 0.5833333333333334  0.5833333333333334 0.5833333333333334 0.5  0.5833333333333334 0.5833333333333334 0.5833333333333334  0.5 0.5833333333333334 0.5  0.5 0.5833333333333334 0.5833333333333334  0.6666666666666666 0.5833333333333334 0.5  0.6666666666666666 0.5833333333333334 0.5833333333333334  0.75 0.5833333333333334 0.5  0.75 0.5833333333333334 0.5833333333333334  0.8333333333333334 0.5833333333333334 0.5  0.8333333333333334 0.5833333333333334 0.5833333333333334  0.9166666666666666 0.5833333333333334 0.5  0.9166666666666666 0.5833333333333334 0.5833333333333334  1 0.5833333333333334 0.5  1 0.5833333333333334 0.5833333333333334  0.5833333333333334 0.6666666666666666 0.5  0.5833333333333334 0.6666666666666666 0.5833333333333334  0.5 0.6666666666666666 0.5  0.5 0.6666666666666666 0.5833333333333334  0.6666666666666666 0.6666666666666666 0.5  0.6666666666666666 0.6666666666666666 0.5833333333333334  0.75 0.6666666666666666 0.5  0.75 0.6666666666666666 0.5833333333333334  0.8333333333333334 0.6666666666666666 0.5  0.8333333333333334 0.6666666666666666 0.5833333333333334  0.9166666666666666 0.6666666666666666 0.5  0.9166666666666666 0.6666666666666666 0.5833333333333334  1 0.6666666666666666 0.5  1 0.6666666666666666 0.5833333333333334  0.5833333333333334 0.75 0.5  0.5833333333333334 0.75 0.5833333333333334  0.5 0.75 0.5  0.5 0.75 0.5833333333333334  0.6666666666666666 0.75 0.5  0.6666666666666666 0.75 0.5833333333333334  0.75 0.75 0.5  0.75 0.75 0.5833333333333334  0.8333333333333334 0.75 0.5  0.8333333333333334 0.75 0.5833333333333334  0.9166666666666666 0.75 0.5  0.9166666666666666 0.75 0.5833333333333334  1 0.75 0.5  1 0.75 0.5833333333333334  0.5833333333333334 0.8333333333333334 0.5  0.5833333333333334 0.8333333333333334 0.5833333333333334  0.5 0.8333333333333334 0.5  0.5 0.8333333333333334 0.5833333333333334  0.6666666666666666 0.8333333333333334 0.5  0.6666666666666666 0.8333333333333334 0.5833333333333334  0.75 0.8333333333333334 0.5  0.75 0.8333333333333334 0.5833333333333334  0.8333333333333334 0.8333333333333334 0.5  0.8333333333333334 0.8333333333333334 0.5833333333333334  0.9166666666666666 0.8333333333333334 0.5  0.9166666666666666 0.8333333333333334 0.5833333333333334  1 0.8333333333333334 0.5  1 0.8333333333333334 0.5833333333333334  0.5833333333333334 0.9166666666666666 0.5  0.5833333333333334 0.9166666666666666 0.5833333333333334  0.5 0.9166666666666666 0.5  0.5 0.9166666666666666 0.5833333333333334  0.6666666666666666 0.9166666666666666 0.5  0.6666666666666666 0.9166666666666666 0.5833333333333334  0.75 0.9166666666666666 0.5  0.75 0.9166666666666666 0.5833333333333334  0.8333333333333334 0.9166666666666666 0.5833333333333334  0.9166666666666666 0.9166666666666666 0.5833333333333334  1 0.9166666666666666 0.5833333333333334  0.5833333333333334 1 0.5  0.5833333333333334 1 0.5833333333333334  0.5 1 0.5  0.5 1 0.5833333333333334  0.6666666666666666 1 0.5  0.6666666666666666 1 0.5833333333333334  0.75 1 0.5  0.75 1 0.5833333333333334  0.8333333333333334 1 0.5833333333333334  0.5833333333333334 0.08333333333333333 0.6666666666666666  0.5833333333333334 0 0.6666666666666666  0.5 0 0.6666666666666666  0.5 0.08333333333333333 0.6666666666666666  0.6666666666666666 0.08333333333333333 0.6666666666666666  0.6666666666666666 0 0.6666666666666666  0.75 0.08333333333333333 0.6666666666666666  0.75 0 0.6666666666666666  0.8333333333333334 0.08333333333333333 0.6666666666666666  0.8333333333333334 0 0.6666666666666666  0.9166666666666666 0.08333333333333333 0.6666666666666666  0.9166666666666666 0 0.6666666666666666  1 0.08333333333333333 0.6666666666666666  1 0 0.6666666666666666  0.5833333333333334 0.1666666666666667 0.6666666666666666  0.5 0.1666666666666667 0.6666666666666666  0.6666666666666666 0.1666666666666667 0.6666666666666666  0.75 0.1666666666666667 0.6666666666666666  0.8333333333333334 0.1666666666666667 0.6666666666666666  0.9166666666666666 0.1666666666666667 0.6666666666666666  1 0.1666666666666667 0.6666666666666666  0.5833333333333334 0.25 0.6666666666666666  0.5 0.25 0.6666666666666666  0.6666666666666666 0.25 0.6666666666666666  0.75 0.25 0.6666666666666666  0.8333333333333334 0.25 0.6666666666666666  0.9166666666666666 0.25 0.6666666666666666  1 0.25 0.6666666666666666  0.5833333333333334 0.3333333333333333 0.6666666666666666  0.5 0.3333333333333333 0.6666666666666666  0.6666666666666666 0.3333333333333333 0.6666666666666666  0.75 0.3333333333333333 0.6666666666666666  0.8333333333333334 0.3333333333333333 0.6666666666666666  0.9166666666666666 0.3333333333333333 0.6666666666666666  1 0.3333333333333333 0.6666666666666666  0.5833333333333334 0.4166666666666667 0.6666666666666666  0.5 0.4166666666666667 0.6666666666666666  0.6666666666666666 0.4166666666666667 0.6666666666666666  0.75 0.4166666666666667 0.6666666666666666  0.8333333333333334 0.4166666666666667 0.6666666666666666  0.9166666666666666 0.4166666666666667 0.6666666666666666  1 0.4166666666666667 0.6666666666666666  0.5833333333333334 0.5 0.6666666666666666  0.5 0.5 0.6666666666666666  0.6666666666666666 0.5 0.6666666666666666  0.75 0.5 0.6666666666666666  0.8333333333333334 0.5 0.6666666666666666  0.9166666666666666 0.5 0.6666666666666666  1 0.5 0.6666666666666666  0.5833333333333334 0.5833333333333334 0.6666666666666666  0.5 0.5833333333333334 0.6666666666666666  0.6666666666666666 0.5833333333333334 0.6666666666666666  0.75 0.5833333333333334 0.6666666666666666  0.8333333333333334 0.5833333333333334 0.6666666666666666  0.9166666666666666 0.5833333333333334 0.6666666666666666  1 0.5833333333333334 0.6666666666666666  0.5833333333333334 0.6666666666666666 0.6666666666666666  0.5 0.6666666666666666 0.6666666666666666  0.6666666666666666 0.6666666666666666 0.6666666666666666  0.75 0.6666666666666666 0.6666666666666666  0.8333333333333334 0.6666666666666666 0.6666666666666666  0.9166666666666666 0.6666666666666666 0.6666666666666666  1 0.6666666666666666 0.6666666666666666  0.5833333333333334 0.75 0.6666666666666666  0.5 0.75 0.6666666666666666  0.6666666666666666 0.75
[...]
<PointData  Vectors="f_18"> 
<DataArray  type="Float64"  Name="f_18"  NumberOfComponents="3" format="ascii">5.3768776169607138e-02 3.3117226686629052e-02 5.8771884661441270e-03  6.4335644286145036e-02 3.3139260532087746e-02 5.9594816498995664e-03  6.4132814646104416e-02 3.3213370909691717e-02 3.5482773052959791e-04  6.3813963638739951e-02 2.8167333918602780e-02 3.4682626642351330e-04  5.3547810948689586e-02 3.3221298446438202e-02 3.3208537797402559e-04  5.2971516395271617e-02 2.8268323661672590e-02 3.2150580585330767e-04  7.4932259008864383e-02 3.3104977128874558e-02 3.7701441662347178e-04  7.4750589939866677e-02 2.7968718502041807e-02 3.7125729140403464e-04  6.3943131670589001e-02 2.8104245253597396e-02 -5.1882522208090776e-03  6.4275644361916198e-02 3.3151299398650795e-02 -5.2514425634793771e-03  5.3712995052450314e-02 3.3134615672876837e-02 -5.2131510926556471e-03  5.3122615121378086e-02 2.8180131957953838e-02 -5.1256810497229957e-03  7.4856838910343976e-02 2.7928792964025805e-02 -5.1794919772719774e-03  7.5050960565291161e-02 3.3065868760450402e-02 -5.2191667550628429e-03  8.5854204732193240e-02 3.2982410491837241e-02 3.9989138702108091e-04  8.5732511179710758e-02 2.7773080468322043e-02 3.9599404336788132e-04  8.5819698498584479e-02 2.7753317332226878e-02 -5.1418148663789839e-03  8.5952749246488713e-02 3.2963809603158083e-02 -5.1599603166412097e-03  9.6843396629851836e-02 3.2897628445253589e-02 4.2383014168319023e-04  9.6737215957623912e-02 2.7641295831387299e-02 4.2137065361812378e-04  9.6810902494222792e-02 2.7638778496147005e-02 -5.1076487365979764e-03  9.6928037436376263e-02 3.2897539278610034e-02 -5.1062426489962062e-03  1.0786686627231550e-01 3.2878879257309153e-02 4.4729044158767055e-04  1.0776345514873706e-01 2.7614042608782145e-02 4.4661873639469237e-04  1.0782815975064326e-01 2.7626146142891390e-02 -5.1093465025004534e-03  1.0794347270394319e-01 3.2896264288695361e-02 -5.0917265916769813e-03  1.1891635872610648e-01 3.2911936820162219e-02 4.6676183983783870e-04  1.1882518162485882e-01 2.7717733294765724e-02 4.6963915056808517e-04  1.1888285681658627e-01 2.7741844975857913e-02 -5.1920431648975690e-03  1.1898906847947494e-01 3.2947383631382575e-02 -5.1749842294403370e-03  6.3008977691674267e-02 2.2876922331689781e-02 3.4444379054083873e-04  6.3138982651317399e-02 2.2821460815270068e-02 -5.2035118807642715e-03  5.1846163653156724e-02 2.2961577403320107e-02 3.1839453799425971e-04  5.1999526041613002e-02 2.2884655291801226e-02 -5.1492482903878149e-03  7.4167382385536412e-02 2.2677897254218440e-02 3.6945182933383720e-04  7.4273243464770447e-02 2.2642259001930082e-02 -5.1887562383680242e-03  8.5294054917541801e-02 2.2474249982080328e-02 3.9462731346880402e-04  8.5379744078967604e-02 2.2455703785280116e-02 -5.1470975636917424e-03  9.6391133793732764e-02 2.2334166777005077e-02 4.2033214212814827e-04  9.6462071304081951e-02 2.2329799997041870e-02 -5.1100810173947010e-03  1.0748301373140241e-01 2.2310133552074330e-02 4.4581394917590376e-04  1.0754321684983928e-01 2.2316959921212388e-02 -5.1078495308123188e-03  1.1860572131864643e-01 2.2465106634840044e-02 4.6864311020628657e-04  1.1865663134008568e-01 2.2479277937865107e-02 -5.1807902826430767e-03  6.2077478799512399e-02 1.7388674333103853e-02 3.4504478746005980e-04  6.2213908793015797e-02 1.7345312258919138e-02 -5.2559878529658969e-03  5.0654743844360577e-02 1.7416484613447119e-02 3.1962196105135511e-04  5.0816116476066292e-02 1.7357034812320253e-02 -5.2230578037344676e-03  7.3447074749259864e-02 1.7236584032552814e-02 3.6953873445474012e-04  7.3557568011967139e-02 1.7208232993903717e-02 -5.2224471199813199e-03  8.4729331071007191e-02 1.7066614393120745e-02 3.9432936635118903e-04  8.4817958650719352e-02 1.7051242838654803e-02 -5.1652170109536414e-03  9.5934633943477524e-02 1.6946703688015256e-02 4.1972158134109231e-04  9.6006941902634743e-02 1.6941986359380559e-02 -5.1154256573282776e-03  1.0710420338779085e-01 1.6933989606184748e-02 4.4473283731102654e-04  1.0716417480596868e-01 1.6937342203502011e-02 -5.1025323693606704e-03  1.1830055151413883e-01 1.7108290595421103e-02 4.6640868750825592e-04  1.1834947241371024e-01 1.7115915801954922e-02 -5.1679329567742016e-03  6.1269034599167431e-02 1.1765483011404088e-02 3.4665710153544129e-04  6.1412387453455841e-02 1.1736277449940607e-02 -5.3147644629257616e-03  4.9681483101390714e-02 1.1745563685670828e-02 3.2218661372935382e-04  4.9850829067695529e-02 1.1706079938421592e-02 -5.3039286115179173e-03  7.2792649489339126e-02 1.1676693083848335e-02 3.7025351161239277e-04  7.2908621054031411e-02 1.1657242166352718e-02 -5.2609854894401249e-03  8.4198255287371876e-02 1.1564091223888373e-02 3.9432155461648137e-04  8.4290924106205020e-02 1.1553164671152426e-02 -5.1864391753851467e-03  9.5493179452424845e-02 1.1483733079727413e-02 4.1912366387715819e-04  9.5568244877429875e-02 1.1479805266528111e-02 -5.1223991493085609e-03  1.0672846326637245e-01 1.1484805583654637e-02 4.4346787044851916e-04  1.0678997231615506e-01 1.1486066245733643e-02 -5.0986506335231043e-03  1.1799304546381741e-01 1.1637876146948238e-02 4.6397847530535853e-04  1.1804208627993089e-01 1.1641431457473601e-02 -5.1590772332096137e-03  6.0727200060984948e-02 6.0713365793877384e-03 3.4824279555623175e-04  6.0875358188069731e-02 6.0570740328234184e-03 -5.3585362425157953e-03  4.9055016269189886e-02 6.0372534525593860e-03 3.2466060296172292e-04  4.9229609780336692e-02 6.0183739905407584e-03 -5.3632188026094497e-03  7.2339298353733317e-02 6.0416818307678956e-03 3.7095217979177107e-04  7.2459296219792468e-02 6.0319003685657515e-03 -5.2901938960252873e-03  8.3820141180364571e-02 5.9957204614687213e-03 3.9426322245743578e-04  8.3915996811581808e-02 5.9899244673232658e-03 -5.2029779192350606e-03  9.5171409509304833e-02 5.9653264012388633e-03 4.1842567550573533e-04  9.5248892725038947e-02 5.9628222393503108e-03 -5.1285095810540736e-03  1.0644924005427280e-01 5.9784977017622873e-03 4.4213822087434341e-04  1.0651241442628058e-01 5.9784202126906306e-03 -5.0971194237199140e-03  1.1776245694103314e-01 6.0746593092747816e-03 4.6175218476336808e-04  1.1781215396714018e-01 6.0755145357927936e-03 -5.1548212736993821e-03  6.0521188548439658e-02 3.4944278670399551e-04 3.4944278670400001e-04  6.0670936613796536e-02 3.5017255285212855e-04 -5.3747922424222435e-03  4.8824165521618994e-02 3.2669320464200356e-04 3.2669320464199066e-04  4.9000290585427313e-02 3.2823763955128671e-04 -5.3846940533054449e-03  7.2161575225711830e-02 3.7136130884393899e-04 3.7136130884394094e-04  7.2283075599689398e-02 3.7141781888780080e-04 -5.3014391015458332e-03  8.3667461306337759e-02 3.9400735437798614e-04 3.9400735437798988e-04  8.3764654862558199e-02 3.9355040271858558e-04 -5.2097877659514685e-03  9.5037735908375040e-02 4.1761057546862074e-04 4.1761057546861428e-04  9.5116366011281803e-02 4.1674970825069865e-04 -5.1316601678890340e-03  1.0633013960849853e-01 4.4084444284471388e-04 4.4084444284471101e-04  1.0639422232307869e-01 4.3970610894230342e-04 -5.0976417547900022e-03  1.1766264544651041e-01 4.5992552862589867e-04 4.5992552862589856e-04  1.1771275200535657e-01 4.5861588949258977e-04 -5.1546593993968964e-03  6.0670936613796529e-02 -5.3747922424222392e-03 3.5017255285212697e-04  6.0818836150977690e-02 -5.3593534879456403e-03 -5.3593534879456360e-03  4.9000290585427320e-02 -5.3846940533054449e-03 3.2823763955127744e-04  4.9174070492983314e-02 -5.3630733611651606e-03 -5.3630733611651545e-03  7.2283075599689398e-02 -5.3014391015458323e-03 3.7141781888779739e-04  7.2403295838875129e-02 -5.2917421838420322e-03 -5.2917421838420348e-03  8.3764654862558185e-02 -5.2097877659514702e-03 3.9355040271859301e-04  8.3861061230411121e-02 -5.2050266665754448e-03 -5.2050266665754534e-03  9.5116366011281817e-02 -5.1316601678890236e-03 4.1674970825069264e-04  9.5194587254349955e-02 -5.1309449101208018e-03 -5.1309449101207836e-03  1.0639422232307864e-01 -5.0976417547900351e-03 4.3970610894232835e-04  1.0645818218476891e-01 -5.0998865783592421e-03 -5.0998865783592352e-03  1.1771275200535655e-01 -5.1546593993969008e-03 4.5861588949263482e-04  1.1776280608366245e-01 -5.1582018061433260e-03 -5.1582018061433407e-03  6.1155839216344959e-02 -1.1077012310309648e-02 3.5044781031287717e-04  6.1298881166311464e-02 -1.1047378584131599e-02 -5.3161594057023103e-03  4.9570189510966027e-02 -1.1098008590641794e-02 3.2927694938566669e-04  4.9738140304366053e-02 -1.1056752856649428e-02 -5.3034133340413760e-03  7.2680510401601325e-02 -1.0943982682122717e-02 3.7118039469636715e-04  7.2797064017202609e-02 -1.0925110274992177e-02 -5.2638086871574143e-03  8.4088313311114854e-02 -1.0784044382623325e-02 3.9299475405979776e-04  8.4182146971246874e-02 -1.0774438758277702e-02 -5.1902211995215547e-03  9.5384900997718042e-02 -1.0654339844530727e-02 4.1599099703410847e-04  9.5461445599873240e-02 -1.0652350064291603e-02 -5.1269017966561756e-03  1.0662081464357810e-01 -1.0606279087890205e-02 4.3887289528584072e-04  1.0668387376836680e-01 -1.0609957324313064e-02 -5.1038025027204219e-03  1.1789450002723784e-01 -1.0716931063709700e-02 4.5790602030386927e-04  1.1794430519312224e-01 -1.0723346078300946e-02 -5.1654545954500312e-03  6.1907217823859120e-02 -1.6715904979598999e-02 3.5046356419524843e-04  6.2043634470200407e-02 -1.6673043946389111e-02 -5.2575673391409491e-03  5.0483846859478460e-02 -1.6784902971095975e-02 3.2988531349600859e-04  5.0643675798458562e-02 -1.6725016797621992e-02 -5.2218688900867449e-03  7.3280603464548386e-02 -1.6515615438698224e-02 3.7087982720240516e-04  7.3392250862590144e-02 -1.6488379461908620e-02 -5.2260723193559020e-03  8.4567224747741407e-02 -1.6294419115217659e-02 3.9254009188460299e-04  8.4657713122060510e-02 -1.6280620550090635e-02 -5.1701991220565457e-03  9.5776044838620872e-02 -1.6122615839615811e-02 4.1551933172630971e-04  9.5850551149090857e-02 -1.6119932998331966e-02 -5.1213624265358396e-03  1.0694781704270966e-01 -1.6058571407381917e-02 4.3850851872588326e-04  1.0701001534514701e-01 -1.6064362504295288e-02 -5.1093688767438620e-03  1.1815446393259359e-01 -1.6184347716093374e-02 4.5784275249493976e-04  1.1820464807686663e-01 -1.6194999356541572e-02 -5.1765993333967837e-03  6.2785780076827516e-02 -2.2223020851622730e-02 3.5088862967388984e-04  6.2916361309572177e-02 -2.2168883271330330e-02 -5.2050839124785867e-03  5.1615359928642641e-02 -2.2360842033049225e-02 3.3053624635770505e-04  5.1767454640060308e-02 -2.2284856252065676e-02 -5.1476937675911331e-03  7.3951405144708701e-02 -2.1966829610992052e-02 3.7111480213521797e-04  7.4059141968609618e-02 -2.1932631511650914e-02 -5.1927134880289279e-03  8.5083593487680784e-02 -2.1706806910960844e-02 3.9255026600244921e-04  8.5171867560009426e-02 -2.1689817546008430e-02 -5.1527367514644581e-03  9.6184847899160167e-02 -2.1512726542731914e-02 4.1545042902665214e-04  9.6258639038887941e-02 -2.1510229105524747e-02 -5.1168371971220174e-03  1.0728084898080495e-01 -2.1436783529132426e-02 4.3876171243072072e-04  1.0734376866073174e-01 -2.1445815075070138e-02 -5.1154578264989651e-03  1.1841260818989960e-01 -2.1535331224463709e-02 4.5844640794392641e-04  1.1846540769493713e-01 -2.1552392519957209e-02 -5.1907521756235468e-03  6.3550253504633683e-02 -2.7510946187525268e-02 3.5320220259442940e-04  6.3680436775829172e-02 -2.7449176007042879e-02 -5.1904941195803434e-03  5.2697143901506045e-02 -2.7677611855091943e-02 3.3273231502587569e-04  5.2847075756963444e-02 -2.7590693344820814e-02 -5.1258286572091680e-03  7.4493170262597996e-02 -2.7252168159579912e-02 3.7307881355041046e-04  7.4601889378089897e-02 -2.7213393034036793e-02 -5.1837684294700178e-03  8.5478568111420600e-02 -2.7000774904159221e-02 3.9390455958709789e-04  8.5568904464753917e-02 -2.6982030796358237e-02 -5.1478198067925161e-03  9.6562017435955882e-02 -2.6814988514044132e-02 -5.1150208159040271e-03  1.0758227444397657e-01 -2.6752333662731203e-02 -5.1170789887851845e-03  1.1864244515170326e-01 -2.6808061149554058e-02 -5.2014787591716828e-03  6.3839905996059473e-02 -3.2509939243850497e-02 3.5770294845402577e-04  6.3983152012371716e-02 -3.2445645646882605e-02 -5.2588334883303433e-03  5.3256761020508948e-02 -3.2563937460630216e-02 3.3746491064085980e-04  5.3419152817634249e-02 -3.2473464644413405e-02 -5.2206218052426234e-03  7.4638824944903787e-02 -3.2356684493016132e-02 3.7679576485407892e-04  7.4760207000227341e-02 -3.2316597501018292e-02 -5.2270225414875011e-03  8.5561164993345845e-02 -3.2190034500586849e-02 3.9689546769438818e-04  8.5663588482020797e-02 -3.2171490651615162e-02 -5.1681966276215102e-03  9.6640035195693932e-02 -3.2062078834127858e-02 -5.1146674524378136e-03  6.4369549728092335e-02 2.7920501654285727e-02 -1.0688485873522648e-02  6.4742621286041122e-02 3.2964601488743667e-02 -1.0804598368909917e-02  5.4249514070711602e-02 3.2870771429455908e-02 -1.0712971735688701e-02  5.3618142055563055e-02 2.7920257464496927e-02 -1.0551365236962325e-02  7.5213600586989740e-02 2.7813467599204153e-02 -1.0694489514666557e-02  7.5445053480256971e-02 3.2949206197375076e-02 -1.0767648006833946e-02  8.6119259124299977e-02 2.7696416298216505e-02 -1.0649298394645682e-02  8.6286441904012065e-02 3.2908263838208461e-02 -1.0683867642230640e-02  9.7070336242644883e-02 2.7631386695353411e-02 -1.0612085348755247e-02  9.7220324315625037e-02 3.2896312802250111e-02 -1.0612142360123977e-02  1.0806134668284006e-01 2.7661046684849921e-02 -1.0638741501724424e-02  1.0821192434934673e-01 3.2946443537201740e-02 -1.0609494013759952e-02  1.1909261897775139e-01 2.7811599970657658e-02 -1.0805174105704399e-02  1.1924176330458937e-01 3.3050500206914094e-02 -1.0773708467782554e-02  6.3567008933083341e-02 2.2660687344732283e-02 -1.0725325138677274e-02  5.2501759515195000e-02 2.2659218508951955e-02 -1.0608766085615257e-02  7.4627593313384283e-02 2.2539937696027822e-02 -1.0716173877687998e-02  8.5673635024551359e-02 2.2403016273937534e-02 -1.0660551374365914e-02  9.6712533171331633e-02 2.2318081997072158e-02 -1.0615848230983053e-02  1.0776288236304458e-01 2.2337915632458145e-02 -1.0633903314265458e-02  1.1884609086528189e-01 2.2522011179318145e-02 -1.0781759389444978e-02  6.2660125830479765e-02 1.7219231534611881e-02 -1.0834173619233757e-02  5.1341805645323216e-02 1.7182339396523617e-02 -1.0763991968475528e-02  7.3924385577794807e-02 1.7126748776224266e-02 -1.0784953876125606e-02  8.5119147242823157e-02 1.7007841300983206e-02 -1.0696655051956522e-02  9.6260172460989044e-02 1.6929771524646500e-02 -1.0625560406881701e-02  1.0738212427045297e-01 1.6949065749910692e-02 -1.0621781848793404e-02  1.1853159981649111e-01 1.7140899984506550e-02 -1.0753416119340097e-02  6.1878452853340482e-02 1.1650717602058771e-02 -1.0954133768269399e-02  5.0399909642107527e-02 1.1588996481405144e-02 -1.0930828452961667e-02  7.3290629393799461e-02 1.1601142431392075e-02 -1.0862561174951737e-02  8.4602795014883408e-02 1.1522518199256572e-02 -1.0738492732749180e-02  9.5828258162846680e-02 1.1470058355157910e-02 -1.0638223274065708e-02  1.0701111435715227e-01 1.1492084347305798e-02 -1.0612018663883612e-02  1.1822284103990136e-01 1.1655080438178702e-02 -1.0731878225962468e-02  6.1355369103142265e-02 6.0142315014184294e-03 -1.1043225654360748e-02  4.9794352207150408e-02 5.9605152010146958e-03 -1.1052664492874117e-02  7.2852543457167657e-02 6.0033754910649830e-03 -1.0921198154385218e-02  8.4236307511143776e-02 5.9739491339910232e-03 -1.0770884361724579e-02  9.5514874088692567e-02 5.9572294381725005e-03 -1.0649098523347555e-02  1.0673723512576827e-01 5.9806412660333326e-03 -1.0606853766473386e-02  1.1799345472085628e-01 6.0812925318676735e-03 -1.0719673590886634e-02  6.1155839216344952e-02 3.5044781031288020e-04 -1.1077012310309643e-02  4.9570189510966020e-02 3.2927694938566208e-04 -1.1098008590641792e-02  7.2680510401601325e-02 3.7118039469636260e-04 -1.0943982682122712e-02  8.4088313311114854e-02 3.9299475405978924e-04 -1.0784044382623325e-02  9.5384900997718083e-02 4.1599099703411427e-04 -1.0654339844530739e-02  1.0662081464357816e-01 4.3887289528584447e-04 -1.0606279087890212e-02  1.1789450002723786e-01 4.5790602030383126e-04 -1.0716931063709670e-02  6.1298881166311450e-02 -5.3161594057023111e-03 -1.1047378584131594e-02  4.9738140304366053e-02 -5.3034133340413812e-03 -1.1056752856649433e-02  7.2797064017202581e-02 -5.2638086871574213e-03 -1.0925110274992180e-02  8.4182146971246860e-02 -5.1902211995215591e-03 -1.0774438758277702e-02  9.5461445599873240e-02 -5.1269017966561877e-03 -1.0652350064291594e-02  1.0668387376836681e-01 -5.1038025027204436e-03 -1.0609957324313061e-02  1.1794430519312231e-01 -5.1654545954500572e-03 -1.0723346078300937e-02  6.1765394201205116e-02 -1.0961916168934115e-02 -1.0961916168934122e-02  5.0286377010746570e-02 -1.0938543214162565e-02 -1.0938543214162563e-02  7.3180326231154474e-02 -1.0869840557165718e-02 -1.0869840557165715e-02  8.4495637689264422e-02 -1.0745068958253161e-02 -1.0745068958253159e-02  9.5723183001421977e-02 -1.0644211304448373e-02 -1.0644211304448382e-02  1.0690668614366179e-01 -1.0617730069879591e-02 -1.0617730069879578e-02  1.1812548225038386e-01 -1.0738619108777386e-02 -1.0738619108777381e-02  6.2491323770383862e-02 -1.6547376165225950e-02 -1.0844551227936421e-02  5.1169251164585289e-02 -1.6549830851153930e-02 -1.0774354626631058e-02  7.3761353890490586e-02 -1.6407806396203772e-02 -1.0794597676712966e-02  8.4961431181289737e-02 -1.6238468803980808e-02 -1.0705329630692515e-02  9.6106266238083146e-02 -1.6109303387298813e-02 -1.0633404977432370e-02  1.0723026196765582e-01 -1.6077848647340954e-02 -1.0629232929322439e-02  1.1838748093585522e-01 -1.6221798810451354e-02 -1.0762174835258414e-02  6.3347400370551935e-02 -2.2008330196172782e-02 -1.0737072466471091e-02  5.2271253586347502e-02 -2.2059044421022161e-02 -1.0620730761877426e-02  7.4416988916632301e-02 -2.1830863860746463e-02 -1.0726998080635961e-02  8.5469173878760310e-02 -2.1637985754847530e-02 -1.0670300077191365e-02  9.6512212710098869e-02 -2.1499792641444169e-02 -1.0624622582923089e-02  1.0756606895650775e-01 -2.1468326716621189e-02 -1.0642073677250691e-02  1.1865596647960391e-01 -2.1597001662622722e-02 -1.0791337418443877e-02  6.4111208260722904e-02 -2.7265036917067213e-02 -1.0701304577063924e-02  5.3345741596645249e-02 -2.7330021583317449e-02 -1.0565565390132351e-02  7.4963168242368219e-02 -2.7097926521119430e-02 -1.0705887723347277e-02  8.5872565610362828e-02 -2.6925211673269771e-02 -1.0659494574524361e-02  9.6824971355491701e-02 -2.6807960960163756e-02 -1.0621298512495610e-02  1.0781828366030577e-01 -2.6787988556633977e-02 -1.0646872478149497e-02  1.1885371049293857e-01 -2.6879012167341742e-02 -1.0814145237995941e-02  6.4454610017431802e-02 -3.2257287482348275e-02 -1.0824262807923000e-02  5.3957706175872720e-02 -3.2206300175147688e-02 -1.0736532958932628e-02  7.5159557871094018e-02 -3.2199435215759985e-02 -1.0783811049517466e-02  8.6002282669936911e-02 -3.2116239176244087e-02 -1.0697092874620222e-02  9.6936583391767306e-02 -3.2061667334382898e-02 -1.0622891510167617e-02  6.5034715720350161e-02 2.7657349391249596e-02 -1.6111320957384545e-02  6.5467309249182898e-02 3.2691397890086453e-02 -1.6245050054825246e-02  5.5108014038321551e-02 3.2475876180090638e-02 -1.6107160107181537e-02  5.4415300268232443e-02 2.7539316150812423e-02 -1.5919050908451284e-02  7.5758132356013225e-02 2.7651532527891841e-02 -1.6135228656760325e-02  7.6043597715636763e-02 3.2781586214522020e-02 -1.6219102301556251e-02  8.6569496346887112e-02 2.7617972071210178e-02 -1.6095839934549338e-02  8.6785422515659863e-02 3.2829493989688603e-02 -1.6135947056756157e-02  9.7456179385807501e-02 2.7621870323387837e-02 -1.6068687717986578e-02  9.7652601520021087e-02 3.2894120776926557e-02 -1.6070378226259788e-02  1.0840667379105816e-01 2.7709972279523026e-02 -1.6120393947073781e-02  1.0860688379813246e-01 3.3015741484994726e-02 -1.6089097985218567e-02  1.1940306814155977e-01 2.7909621339185668e-02 -1.6334362397158662e-02  1.1961265269621357e-01 3.3193994339118765e-02 -1.6299270879096751e-02  6.4235934613535967e-02 2.2433823210595054e-02 -1.61839