<?xml version="1.0"?>
<VTKFile type="UnstructuredGrid"  version="0.1"  >
<UnstructuredGrid>
<Piece  NumberOfPoints="649" NumberOfCells="2627">
<Points>
<DataArray  type="Float64"  NumberOfComponents="3"  format="ascii">0.5 0 0  0.5833333333333334 0 0  0.5833333333333334 0.08333333333333333 0  0.5833333333333334 0.08333333333333333 0.08333333333333333  0.5833333333333334 0 0.08333333333333333  0.5 0 0.08333333333333333  0.5 0.08333333333333333 0  0.5 0.08333333333333333 0.08333333333333333  0.6666666666666666 0 0  0.6666666666666666 0.08333333333333333 0  0.6666666666666666 0.08333333333333333 0.08333333333333333  0.6666666666666666 0 0.08333333333333333  0.75 0 0  0.75 0.08333333333333333 0  0.75 0.08333333333333333 0.08333333333333333  0.75 0 0.08333333333333333  0.8333333333333334 0 0  0.8333333333333334 0.08333333333333333 0  0.8333333333333334 0.08333333333333333 0.08333333333333333  0.8333333333333334 0 0.08333333333333333  0.9166666666666666 0 0  0.9166666666666666 0.08333333333333333 0  0.9166666666666666 0.08333333333333333 0.08333333333333333  0.9166666666666666 0 0.08333333333333333  1 0 0  1 0.08333333333333333 0  1 0.08333333333333333 0.08333333333333333  1 0 0.08333333333333333  0.5833333333333334 0.1666666666666667 0  0.5833333333333334 0.1666666666666667 0.08333333333333333  0.5 0.1666666666666667 0  0.5 0.1666666666666667 0.08333333333333333  0.6666666666666666 0.1666666666666667 0  0.6666666666666666 0.1666666666666667 0.08333333333333333  0.75 0.1666666666666667 0  0.75 0.1666666666666667 0.08333333333333333  0.8333333333333334 0.1666666666666667 0  0.8333333333333334 0.1666666666666667 0.08333333333333333  0.9166666666666666 0.1666666666666667 0  0.9166666666666666 0.1666666666666667 0.08333333333333333  1 0.1666666666666667 0  1 0.1666666666666667 0.08333333333333333  0.5833333333333334 0.25 0  0.5833333333333334 0.25 0.08333333333333333  0.5 0.25 0  0.5 0.25 0.08333333333333333  0.6666666666666666 0.25 0  0.6666666666666666 0.25 0.08333333333333333  0.75 0.25 0  0.75 0.25 0.08333333333333333  0.8333333333333334 0.25 0  0.8333333333333334 0.25 0.08333333333333333  0.9166666666666666 0.25 0  0.9166666666666666 0.25 0.08333333333333333  1 0.25 0  1 0.25 0.08333333333333333  0.5833333333333334 0.3333333333333333 0  0.5833333333333334 0.3333333333333333 0.08333333333333333  0.5 0.3333333333333333 0  0.5 0.3333333333333333 0.08333333333333333  0.6666666666666666 0.3333333333333333 0  0.6666666666666666 0.3333333333333333 0.08333333333333333  0.75 0.3333333333333333 0  0.75 0.3333333333333333 0.08333333333333333  0.8333333333333334 0.3333333333333333 0  0.8333333333333334 0.3333333333333333 0.08333333333333333  0.9166666666666666 0.3333333333333333 0  0.9166666666666666 0.3333333333333333 0.08333333333333333  1 0.3333333333333333 0  1 0.3333333333333333 0.08333333333333333  0.5833333333333334 0.4166666666666667 0  0.5833333333333334 0.4166666666666667 0.08333333333333333  0.5 0.4166666666666667 0  0.5 0.4166666666666667 0.08333333333333333  0.6666666666666666 0.4166666666666667 0  0.6666666666666666 0.4166666666666667 0.08333333333333333  0.75 0.4166666666666667 0  0.75 0.4166666666666667 0.08333333333333333  0.8333333333333334 0.4166666666666667 0  0.8333333333333334 0.4166666666666667 0.08333333333333333  0.9166666666666666 0.4166666666666667 0  0.9166666666666666 0.4166666666666667 0.08333333333333333  1 0.4166666666666667 0  1 0.4166666666666667 0.08333333333333333  0.5833333333333334 0.5 0  0.5833333333333334 0.5 0.08333333333333333  0.5 0.5 0  0.5 0.5 0.08333333333333333  0.6666666666666666 0.5 0  0.6666666666666666 0.5 0.08333333333333333  0.75 0.5 0  0.75 0.5 0.08333333333333333  0.8333333333333334 0.5 0  0.8333333333333334 0.5 0.08333333333333333  0.9166666666666666 0.5 0  0.9166666666666666 0.5 0.08333333333333333  1 0.5 0  1 0.5 0.08333333333333333  0.5833333333333334 0.5833333333333334 0  0.5833333333333334 0.5833333333333334 0.08333333333333333  0.5 0.5833333333333334 0  0.5 0.5833333333333334 0.08333333333333333  0.6666666666666666 0.5833333333333334 0  0.6666666666666666 0.5833333333333334 0.08333333333333333  0.75 0.5833333333333334 0  0.75 0.5833333333333334 0.08333333333333333  0.8333333333333334 0.5833333333333334 0  0.8333333333333334 0.5833333333333334 0.08333333333333333  0.9166666666666666 0.5833333333333334 0  0.9166666666666666 0.5833333333333334 0.08333333333333333  1 0.5833333333333334 0  1 0.5833333333333334 0.08333333333333333  0.5833333333333334 0.6666666666666666 0  0.5833333333333334 0.6666666666666666 0.08333333333333333  0.5 0.6666666666666666 0  0.5 0.6666666666666666 0.08333333333333333  0.6666666666666666 0.6666666666666666 0  0.6666666666666666 0.6666666666666666 0.08333333333333333  0.75 0.6666666666666666 0  0.75 0.6666666666666666 0.08333333333333333  0.8333333333333334 0.6666666666666666 0  0.8333333333333334 0.6666666666666666 0.08333333333333333  0.9166666666666666 0.6666666666666666 0  0.9166666666666666 0.6666666666666666 0.08333333333333333  1 0.6666666666666666 0  1 0.6666666666666666 0.08333333333333333  0.5833333333333334 0.75 0  0.5833333333333334 0.75 0.08333333333333333  0.5 0.75 0  0.5 0.75 0.08333333333333333  0.6666666666666666 0.75 0  0.6666666666666666 0.75 0.08333333333333333  0.75 0.75 0  0.75 0.75 0.08333333333333333  0.8333333333333334 0.75 0  0.8333333333333334 0.75 0.08333333333333333  0.9166666666666666 0.75 0  0.9166666666666666 0.75 0.08333333333333333  1 0.75 0  1 0.75 0.08333333333333333  0.5833333333333334 0.8333333333333334 0  0.5833333333333334 0.8333333333333334 0.08333333333333333  0.5 0.8333333333333334 0  0.5 0.8333333333333334 0.08333333333333333  0.6666666666666666 0.8333333333333334 0  0.6666666666666666 0.8333333333333334 0.08333333333333333  0.75 0.8333333333333334 0  0.75 0.8333333333333334 0.08333333333333333  0.8333333333333334 0.8333333333333334 0  0.8333333333333334 0.8333333333333334 0.08333333333333333  0.9166666666666666 0.8333333333333334 0  0.9166666666666666 0.8333333333333334 0.08333333333333333  1 0.8333333333333334 0  1 0.8333333333333334 0.08333333333333333  0.5833333333333334 0.9166666666666666 0  0.5833333333333334 0.9166666666666666 0.08333333333333333  0.5 0.9166666666666666 0  0.5 0.9166666666666666 0.08333333333333333  0.6666666666666666 0.9166666666666666 0  0.6666666666666666 0.9166666666666666 0.08333333333333333  0.75 0.9166666666666666 0  0.75 0.9166666666666666 0.08333333333333333  0.8333333333333334 0.9166666666666666 0  0.8333333333333334 0.9166666666666666 0.08333333333333333  0.9166666666666666 0.9166666666666666 0  0.9166666666666666 0.9166666666666666 0.08333333333333333  1 0.9166666666666666 0  1 0.9166666666666666 0.08333333333333333  0.5833333333333334 1 0  0.5833333333333334 1 0.08333333333333333  0.5 1 0  0.5 1 0.08333333333333333  0.6666666666666666 1 0  0.6666666666666666 1 0.08333333333333333  0.75 1 0  0.75 1 0.08333333333333333  0.8333333333333334 1 0  0.8333333333333334 1 0.08333333333333333  0.9166666666666666 1 0  0.9166666666666666 1 0.08333333333333333  1 1 0  1 1 0.08333333333333333  0.5833333333333334 0.08333333333333333 0.1666666666666667  0.5833333333333334 0 0.1666666666666667  0.5 0 0.1666666666666667  0.5 0.08333333333333333 0.1666666666666667  0.6666666666666666 0.08333333333333333 0.1666666666666667  0.6666666666666666 0 0.1666666666666667  0.75 0.08333333333333333 0.1666666666666667  0.75 0 0.1666666666666667  0.8333333333333334 0.08333333333333333 0.1666666666666667  0.8333333333333334 0 0.1666666666666667  0.9166666666666666 0.08333333333333333 0.1666666666666667  0.9166666666666666 0 0.1666666666666667  1 0.08333333333333333 0.1666666666666667  1 0 0.1666666666666667  0.5833333333333334 0.1666666666666667 0.1666666666666667  0.5 0.1666666666666667 0.1666666666666667  0.6666666666666666 0.1666666666666667 0.1666666666666667  0.75 0.1666666666666667 0.1666666666666667  0.8333333333333334 0.1666666666666667 0.1666666666666667  0.9166666666666666 0.1666666666666667 0.1666666666666667  1 0.1666666666666667 0.1666666666666667  0.5833333333333334 0.25 0.1666666666666667  0.5 0.25 0.1666666666666667  0.6666666666666666 0.25 0.1666666666666667  0.75 0.25 0.1666666666666667  0.8333333333333334 0.25 0.1666666666666667  0.9166666666666666 0.25 0.1666666666666667  1 0.25 0.1666666666666667  0.5833333333333334 0.3333333333333333 0.1666666666666667  0.5 0.3333333333333333 0.1666666666666667  0.6666666666666666 0.3333333333333333 0.1666666666666667  0.75 0.3333333333333333 0.1666666666666667  0.8333333333333334 0.3333333333333333 0.1666666666666667  0.9166666666666666 0.3333333333333333 0.1666666666666667  1 0.3333333333333333 0.1666666666666667  0.5833333333333334 0.4166666666666667 0.1666666666666667  0.5 0.4166666666666667 0.1666666666666667  0.6666666666666666 0.4166666666666667 0.1666666666666667  0.75 0.4166666666666667 0.1666666666666667  0.8333333333333334 0.4166666666666667 0.1666666666666667  0.9166666666666666 0.4166666666666667 0.1666666666666667  1 0.4166666666666667 0.1666666666666667  0.5833333333333334 0.5 0.1666666666666667  0.5 0.5 0.1666666666666667  0.6666666666666666 0.5 0.1666666666666667  0.75 0.5 0.1666666666666667  0.8333333333333334 0.5 0.1666666666666667  0.9166666666666666 0.5 0.1666666666666667  1 0.5 0.1666666666666667  0.5833333333333334 0.5833333333333334 0.1666666666666667  0.5 0.5833333333333334 0.1666666666666667  0.6666666666666666 0.5833333333333334 0.1666666666666667  0.75 0.5833333333333334 0.1666666666666667  0.8333333333333334 0.5833333333333334 0.1666666666666667  0.9166666666666666 0.5833333333333334 0.1666666666666667  1 0.5833333333333334 0.1666666666666667  0.5833333333333334 0.6666666666666666 0.1666666666666667  0.5 0.6666666666666666 0.1666666666666667  0.6666666666666666 0.6666666666666666 0.1666666666666667  0.75 0.6666666666666666 0.1666666666666667  0.8333333333333334 0.6666666666666666 0.1666666666666667  0.9166666666666666 0.6666666666666666 0.1666666666666667  1 0.6666666666666666 0.1666666666666667  0.58333333333333
[...]
<PointData  Vectors="f_18"> 
<DataArray  type="Float64"  Name="f_18"  NumberOfComponents="3" format="ascii">5.8534018876432559e-02 3.1572719339361059e-02 3.1572719339361066e-02  6.8097316005354347e-02 3.2113911482641887e-02 3.2113911482641901e-02  6.7453986307068503e-02 2.7232963314702759e-02 3.2174046409247335e-02  6.6881352420703116e-02 2.7210151827965278e-02 2.7210151827965282e-02  6.7453986307068503e-02 3.2174046409247328e-02 2.7232963314702763e-02  5.7590147805898530e-02 3.1674801686906326e-02 2.6877612925626508e-02  5.7590147805898551e-02 2.6877612925626498e-02 3.1674801686906333e-02  5.6745243551193356e-02 2.6846485900663245e-02 2.6846485900663242e-02  7.8106811834142878e-02 3.2454050250149184e-02 3.2454050250149240e-02  7.7647839251876308e-02 2.7408635081568093e-02 3.2484459141085859e-02  7.7240561122809581e-02 2.7393744260672495e-02 2.7393744260672499e-02  7.7647839251876322e-02 3.2484459141085852e-02 2.7408635081568107e-02  8.8484406192038956e-02 3.2694057073130361e-02 3.2694057073130382e-02  8.8123319242419451e-02 2.7511734503070241e-02 3.2702703437628683e-02  8.7801679693187779e-02 2.7504229125418778e-02 2.7504229125418802e-02  8.8123319242419451e-02 3.2702703437628655e-02 2.7511734503070269e-02  9.9149384898061868e-02 3.2909461723016620e-02 3.2909461723016703e-02  9.8825072340177345e-02 2.7619890506804634e-02 3.2902423578829151e-02  9.8532168053525757e-02 2.7619472056341236e-02 2.7619472056341285e-02  9.8825072340177386e-02 3.2902423578829137e-02 2.7619890506804651e-02  1.1001177208447904e-01 3.3154900468774860e-02 3.3154900468774923e-02  1.0968994298970845e-01 2.7793549088469940e-02 3.3140182224543152e-02  1.0939170086740545e-01 2.7799929450055594e-02 2.7799929450055657e-02  1.0968994298970845e-01 3.3140182224543117e-02 2.7793549088469989e-02  1.2097326706158516e-01 3.3453680932247633e-02 3.3453680932247667e-02  1.2064189916974999e-01 2.8088356089192988e-02 3.3437736260299541e-02  1.2032082446701695e-01 2.8088230804719630e-02 2.8088230804719668e-02  1.2064189916974996e-01 3.3437736260299514e-02 2.8088356089193033e-02  6.6574166669607360e-02 2.2186936580674971e-02 3.2377526182312932e-02  6.6062577301334441e-02 2.2085102000308183e-02 2.7375183480160790e-02  5.6427014818138208e-02 2.1948032264544018e-02 3.1997616597610128e-02  5.5650172181687801e-02 2.1798776072709067e-02 2.7110944486751200e-02  7.6971431011327127e-02 2.2255857524749595e-02 3.2598158195508591e-02  7.6616268458027534e-02 2.2194255985449156e-02 2.7485308191589886e-02  8.7580468458255831e-02 2.2265170334600966e-02 3.2748594904207437e-02  8.7303298240744037e-02 2.2237247152514201e-02 2.7542050929114149e-02  9.8360847415426361e-02 2.2292811966823700e-02 3.2896500051568155e-02  9.8107791176067841e-02 2.2293559992862467e-02 2.7617707259763383e-02  1.0926624380046529e-01 2.2405587638859421e-02 3.3092698897170446e-02  1.0900776750892770e-01 2.2429789801732949e-02 2.7766494598492897e-02  1.2023675981991068e-01 2.2695787604089957e-02 3.3348745070439140e-02  1.1996130671738950e-01 2.2716434931410547e-02 2.8020029774377619e-02  6.5651028397112315e-02 1.6935761338752599e-02 3.2664452802148386e-02  6.5209137201111350e-02 1.6795027964133173e-02 2.7641488721650693e-02  5.5286418774804238e-02 1.6759375594157536e-02 3.2432296958868199e-02  5.4585410989154509e-02 1.6557608291016369e-02 2.7514028882052260e-02  7.6227453735428052e-02 1.6954514676891221e-02 3.2766859176747279e-02  7.5933165640825973e-02 1.6867649821722636e-02 2.7642525809739450e-02  8.6967276763926307e-02 1.6919584989066722e-02 3.2823528758960968e-02  8.6743349889238291e-02 1.6878941748468920e-02 2.7614099530346117e-02  9.7832022693652793e-02 1.6904263873835562e-02 3.2894804839151498e-02  9.7628332405327936e-02 1.6903492541915418e-02 2.7622419614657112e-02  1.0878386641983238e-01 1.6976136361361277e-02 3.3022584188829487e-02  1.0857729799612048e-01 1.7008395681308672e-02 2.7715161214855712e-02  1.1977942899974861e-01 1.7242876421460898e-02 3.3206804159138695e-02  1.1956716615852625e-01 1.7277164364816733e-02 2.7918697032024157e-02  6.4863935186638744e-02 1.1506897053540174e-02 3.2942521482867235e-02  6.4485438493813135e-02 1.1377649587781414e-02 2.7907498934666725e-02  5.4364113922188234e-02 1.1374705008769026e-02 3.2837662002830635e-02  5.3729253656443036e-02 1.1193395723985623e-02 2.7900910663970786e-02  7.5568447711010817e-02 1.1513281725505406e-02 3.2936056784162560e-02  7.5331136127932574e-02 1.1431881485756400e-02 2.7805453848271048e-02  8.6409400244415346e-02 1.1475735334135385e-02 3.2901994360702992e-02  8.6236538541963698e-02 1.1436497379264004e-02 2.7692354330740694e-02  9.7342144544161388e-02 1.1452851183892131e-02 3.2895604068700506e-02  9.7186792396894386e-02 1.1450559445719944e-02 2.7630854513129702e-02  1.0833240712043293e-01 1.1500539919416252e-02 3.2951299796147880e-02  1.0817708676908450e-01 1.1529432566347888e-02 2.7664337867229546e-02  1.1935335550089114e-01 1.1711474530928308e-02 3.3060575560600179e-02  1.1920226415019111e-01 1.1745682378430281e-02 2.7817917732132394e-02  6.4335644286145049e-02 5.9594816498995586e-03 3.3139260532087732e-02  6.4000744907105750e-02 5.8808007091572037e-03 2.8097095053182433e-02  5.3768776169607138e-02 5.8771884661441235e-03 3.3117226686629045e-02  5.3177349320152563e-02 5.7686291708383868e-03 2.8169840584964231e-02  7.5112702565569525e-02 5.9711236704137983e-03 3.3058397319956287e-02  7.4915720580127784e-02 5.9206450012438605e-03 2.7924216902164786e-02  8.6014696426588891e-02 5.9576783019135689e-03 3.2960008499564722e-02  8.5878732385533285e-02 5.9324835051131784e-03 2.7750841310484872e-02  9.6989721186886632e-02 5.9520672881864869e-03 3.2896860041850433e-02  9.6869746076119728e-02 5.9492193856832132e-03 2.7638240698497851e-02  1.0800463103521227e-01 5.9854167188652567e-03 3.2898864268135104e-02  1.0788676023145470e-01 6.0019193469036964e-03 2.7627755513231787e-02  1.1904519116754868e-01 6.1095072241812050e-03 3.2952990242550780e-02  1.1893783523731587e-01 6.1315573755475273e-03 2.7745109884355121e-02  6.4132814646104416e-02 3.5482773052959558e-04 3.3213370909691724e-02  6.3813963638739965e-02 3.4682626642351455e-04 2.8167333918602783e-02  5.3547810948689586e-02 3.3208537797403643e-04 3.3221298446438202e-02  5.2971516395271624e-02 3.2150580585330583e-04 2.8268323661672586e-02  7.4932259008864383e-02 3.7701441662348192e-04 3.3104977128874558e-02  7.4750589939866663e-02 3.7125729140402537e-04 2.7968718502041821e-02  8.5854204732193268e-02 3.9989138702104985e-04 3.2982410491837248e-02  8.5732511179710758e-02 3.9599404336784300e-04 2.7773080468322060e-02  9.6843396629851822e-02 4.2383014168314979e-04 3.2897628445253603e-02  9.6737215957623940e-02 4.2137065361808117e-04 2.7641295831387299e-02  1.0786686627231548e-01 4.4729044158763769e-04 3.2878879257309167e-02  1.0776345514873709e-01 4.4661873639465708e-04 2.7614042608782145e-02  1.1891635872610652e-01 4.6676183983777099e-04 3.2911936820162260e-02  1.1882518162485886e-01 4.6963915056802999e-04 2.7717733294765731e-02  6.4275644361916212e-02 -5.2514425634793841e-03 3.3151299398650802e-02  6.3943131670589029e-02 -5.1882522208090750e-03 2.8104245253597403e-02  5.3712995052450287e-02 -5.2131510926556462e-03 3.3134615672876851e-02  5.3122615121378100e-02 -5.1256810497229948e-03 2.8180131957953842e-02  7.5050960565291147e-02 -5.2191667550628420e-03 3.3065868760450409e-02  7.4856838910343976e-02 -5.1794919772719938e-03 2.7928792964025808e-02  8.5952749246488686e-02 -5.1599603166412192e-03 3.2963809603158076e-02  8.5819698498584521e-02 -5.1418148663790160e-03 2.7753317332226895e-02  9.6928037436376249e-02 -5.1062426489962140e-03 3.2897539278610041e-02  9.6810902494222806e-02 -5.1076487365979981e-03 2.7638778496147015e-02  1.0794347270394321e-01 -5.0917265916770550e-03 3.2896264288695375e-02  1.0782815975064328e-01 -5.1093465025005202e-03 2.7626146142891422e-02  1.1898906847947491e-01 -5.1749842294403743e-03 3.2947383631382589e-02  1.1888285681658621e-01 -5.1920431648976289e-03 2.7741844975857889e-02  6.4742621286041122e-02 -1.0804598368909913e-02 3.2964601488743681e-02  6.4369549728092362e-02 -1.0688485873522641e-02 2.7920501654285741e-02  5.4249514070711609e-02 -1.0712971735688711e-02 3.2870771429455922e-02  5.3618142055563069e-02 -1.0551365236962332e-02 2.7920257464496938e-02  7.5445053480256985e-02 -1.0767648006833967e-02 3.2949206197375111e-02  7.5213600586989768e-02 -1.0694489514666564e-02 2.7813467599204181e-02  8.6286441904012093e-02 -1.0683867642230652e-02 3.2908263838208461e-02  8.6119259124300004e-02 -1.0649298394645689e-02 2.7696416298216512e-02  9.7220324315625051e-02 -1.0612142360123986e-02 3.2896312802250124e-02  9.7070336242644870e-02 -1.0612085348755271e-02 2.7631386695353415e-02  1.0821192434934677e-01 -1.0609494013759978e-02 3.2946443537201740e-02  1.0806134668284004e-01 -1.0638741501724456e-02 2.7661046684849935e-02  1.1924176330458938e-01 -1.0773708467782594e-02 3.3050500206914114e-02  1.1909261897775140e-01 -1.0805174105704465e-02 2.7811599970657661e-02  6.5467309249182898e-02 -1.6245050054825249e-02 3.2691397890086467e-02  6.5034715720350189e-02 -1.6111320957384552e-02 2.7657349391249621e-02  5.5108014038321565e-02 -1.6107160107181540e-02 3.2475876180090651e-02  5.4415300268232457e-02 -1.5919050908451287e-02 2.7539316150812433e-02  7.6043597715636790e-02 -1.6219102301556289e-02 3.2781586214522040e-02  7.5758132356013225e-02 -1.6135228656760345e-02 2.7651532527891858e-02  8.6785422515659918e-02 -1.6135947056756174e-02 3.2829493989688624e-02  8.6569496346887126e-02 -1.6095839934549366e-02 2.7617972071210209e-02  9.7652601520021115e-02 -1.6070378226259806e-02 3.2894120776926550e-02  9.7456179385807515e-02 -1.6068687717986588e-02 2.7621870323387844e-02  1.0860688379813248e-01 -1.6089097985218556e-02 3.3015741484994733e-02  1.0840667379105819e-01 -1.6120393947073815e-02 2.7709972279523026e-02  1.1961265269621357e-01 -1.6299270879096810e-02 3.3193994339118793e-02  1.1940306814155978e-01 -1.6334362397158735e-02 2.7909621339185658e-02  6.6330042709620868e-02 -2.1512496361768673e-02 3.2399195852388929e-02  6.5832005434033627e-02 -2.1407151775767352e-02 2.7387908872817470e-02  5.6182185411346980e-02 -2.1316386628474536e-02 3.2038310815867888e-02  5.5420685383206263e-02 -2.1167741006568097e-02 2.7134322510441903e-02  7.6730535277242509e-02 -2.1531744023694132e-02 3.2607886957954836e-02  7.6386674217355732e-02 -2.1465491874819932e-02 2.7491322366430274e-02  8.7342978915539715e-02 -2.1488976272765348e-02 3.2750538644204442e-02  8.7075280054716861e-02 -2.1456452851762484e-02 2.7543383356312304e-02  9.8126338074357611e-02 -2.1464146074570260e-02 3.2892587531079202e-02  9.7881518453258820e-02 -2.1460751123525211e-02 2.7614924627687300e-02  1.0903479339783201e-01 -2.1522073096187786e-02 3.3083579661734183e-02  1.0878372493298608e-01 -2.1544071752131924e-02 2.7759275197290535e-02  1.2001324006884453e-01 -2.1744809158294048e-02 3.3334753431923964e-02  1.1974247349153042e-01 -2.1770084111800005e-02 2.8008747442576011e-02  6.7154208896059511e-02 -2.6567990234107632e-02 3.2178595329138360e-02  6.6599267587899677e-02 -2.6531936499045842e-02 2.7212699346756256e-02  5.7281816515826804e-02 -2.6265542036975294e-02 3.1690434320373037e-02  5.6461744591565617e-02 -2.6219821600097594e-02 2.6854306958080817e-02  7.7354222329419992e-02 -2.6688798638245526e-02 3.2483458506129340e-02  7.6959777931143128e-02 -2.6663492645261532e-02 2.7393443732408065e-02  8.7833755083909074e-02 -2.6737224923015175e-02 3.2698350707231510e-02  8.7521795237586256e-02 -2.6721945860454951e-02 2.7501793692668617e-02  9.8537947313356397e-02 -2.6790714118415174e-02 3.2894894140282807e-02  9.8252595711510002e-02 -2.6785010008392181e-02 2.7614656490075159e-02  1.0940477667975762e-01 -2.6908048989929548e-02 3.3128972620209543e-02  1.0911314995118250e-01 -2.6912713147465735e-02 2.7791890698857590e-02  1.2035908817237538e-01 -2.7133683943008201e-02 3.3424174221989122e-02  1.2004561450450146e-01 -2.7137947111618377e-02 2.8076277792481546e-02  6.7728740455517966e-02 -3.1427250860988208e-02 3.2099836883784011e-02  6.7132397841465907e-02 -3.1482012172432954e-02 2.7234736408919227e-02  5.8142770988210031e-02 -3.0937119703306593e-02 3.1559862351704840e-02  5.7279609742470705e-02 -3.1031245495022657e-02 2.6879287344950546e-02  7.7750213758639691e-02 -3.1716873677158086e-02 3.2441436895076323e-02  7.7321444159970859e-02 -3.1743438058835734e-02 2.7409466277811351e-02  8.8134747265325095e-02 -3.1906912301731545e-02 3.2682602650740550e-02  8.7795179270559853e-02 -3.1912609924026974e-02 2.7510732328815981e-02  9.8805918181030156e-02 -3.2071759313610275e-02 3.2897538181318804e-02  9.8496656519634157e-02 -3.2062263512092792e-02 2.7616147420433102e-02  1.0967651854695076e-01 -3.2264176037178280e-02 3.3141746923268260e-02  1.0936049395253192e-01 -3.2247199373217877e-02 2.7786308462649342e-02  1.2063381146637950e-01 -3.2507059836402050e-02 3.3442037955988359e-02  1.2030247383523331e-01 -3.2488980811612396e-02 2.8074070209907022e-02  6.6062577301334455e-02 2.7375183480160773e-02 2.2085102000308193e-02  6.6574166669607346e-02 3.2377526182312925e-02 2.2186936580674988e-02  5.6427014818138214e-02 3.1997616597610135e-02 2.1948032264544018e-02  5.5650172181687808e-02 2.7110944486751200e-02 2.1798776072709070e-02  7.6616268458027562e-02 2.7485308191589879e-02 2.2194255985449173e-02  7.6971431011327113e-02 3.2598158195508570e-02 2.2255857524749609e-02  8.7303298240744037e-02 2.7542050929114135e-02 2.2237247152514229e-02  8.7580468458255845e-02 3.2748594904207444e-02 2.2265170334601007e-02  9.8107791176067813e-02 2.7617707259763355e-02 2.2293559992862498e-02  9.8360847415426361e-02 3.2896500051568113e-02 2.2292811966823738e-02  1.0900776750892771e-01 2.7766494598492873e-02 2.2429789801732981e-02  1.0926624380046532e-01 3.3092698897170404e-02 2.2405587638859466e-02  1.1996130671738953e-01 2.8020029774377623e-02 2.2716434931410560e-02  1.2023675981991075e-01 3.3348745070439140e-02 2.2695787604089981e-02  6.5260704277146447e-02 2.2198421648799000e-02 2.2198421648799010e-02  5.4559084133242848e-02 2.1979694310068416e-02 2.1979694310068423e-02  7.6014389539368343e-02 2.2257997549112028e-02 2.2257997549112039e-02  8.6830175468601153e-02 2.2265327672759263e-02 2.2265327672759291e-02  9.7711931191905729e-02 2.2295601289660648e-02 2.2295601289660658e-02  1.0865777785217597e-01 2.2409127503517701e-02 2.2409127503517718e-02  1.1964244142604832e-01 2.2664661072557157e-02 2.2664661072557182e-02  6.4405222051096098e-02 1.6863627847325122e-02 2.2419189503571111e-02  5.3477770034899036e-02 1.6666918690637078e-02 2.2310029164063480e-02  7.5338693599873358e-02 1.6906615983982964e-02 2.2390495728533365e-02  8.6284191302497190e-02 1.6897161474001724e-02 2.2328839489834343e-02  9.7252449340859415e-02 1.6906703033455865e-02 2.2305047159812099e-02  1.0825483688754976e-01 1.6996598455937414e-02 2.2374563264552394e-02  1.1928606468908709e-01 1.7238885063929836e-02 2.2594064177179646e-02  6.3679447992924867e-02 1.1410940735321964e-02 2.2648610205541150e-02  5.2610006216593189e-02 1.1246477409256359e-02 2.2640873264605631e-02  7.4741598546765237e-02 1.1450832807130978e-02 2.2532867010697344e-02  8.5787636791102045e-02 1.1445719976112498e-02 2.2399929714695649e-02  9.6826239572351883e-02 1.1452779913369938e-02 2.2318503077348412e-02  1.0787655046202864e-01 1.1523115287535487e-02 2.2341738823740940e-02  1.1895300850016433e-01 1.1720002258564953e-02 2.2528336014569959e-02  6.3194863583367761e-02 5.8917173380154736e-03 2.2814855801240611e-02  5.2052945449223370e-02 5.7865775983560073e-03 2.2875069798861801e-02  7.4330287380406035e-02 5.9266082447781178e-03 2.2638201167735777e-02  8.5437075916268257e-02 5.9352722869052653e-03 2.2453769786305446e-02  9.6519547502765674e-02 5.9497489928351374e-03 2.2329797674159216e-02  1.0760086052328936e-01 5.9988614385690598e-03 2.2318841786822734e-02  1.1871025604897521e-01 6.1182348502414313e-03 2.2482433851740070e-02  6.3008977691674267e-02 3.4444379054082133e-04 2.2876922331689777e-02  5.1846163653156731e-02 3.1839453799425369e-04 2.2961577403320100e-02  7.4167382385536398e-02 3.6945182933381692e-04 2.2677897254218437e-02  8.5294054917541814e-02 3.9462731346877951e-04 2.2474249982080335e-02  9.6391133793732778e-02 4.2033214212813103e-04 2.2334166777005102e-02  1.0748301373140237e-01 4.4581394917586929e-04 2.2310133552074323e-02  1.1860572131864641e-01 4.6864311020623122e-04 2.2465106634840019e-02  6.3138982651317413e-02 -5.2035118807642932e-03 2.2821460815270075e-02  5.1999526041613016e-02 -5.1492482903878183e-03 2.2884655291801226e-02  7.4273243464770447e-02 -5.1887562383680285e-03 2.2642259001930093e-02  8.5379744078967604e-02 -5.1470975636917589e-03 2.2455703785280126e-02  9.6462071304081978e-02 -5.1100810173947252e-03 2.2329799997041870e-02  1.0754321684983931e-01 -5.1078495308123535e-03 2.2316959921212406e-02  1.1865663134008567e-01 -5.1807902826431357e-03 2.2479277937865100e-02  6.3567008933083369e-02 -1.0725325138677289e-02 2.2660687344732283e-02  5.2501759515195000e-02 -1.0608766085615257e-02 2.2659218508951948e-02  7.4627593313384311e-02 -1.0716173877688015e-02 2.2539937696027832e-02  8.5673635024551387e-02 -1.0660551374365937e-02 2.2403016273937554e-02  9.6712533171331660e-02 -1.0615848230983089e-02 2.2318081997072178e-02  1.0776288236304460e-01 -1.0633903314265485e-02 2.2337915632458159e-02  1.1884609086528188e-01 -1.0781759389445006e-02 2.2522011179318183e-02  6.4235934613535994e-02 -1.6183980303967466e-02 2.2433823210595047e-02  5.3312343199397108e-02 -1.6033160317631707e-02 2.2334319461452760e-02  7.5168715480805337e-02 -1.6177123984838851e-02 2.2398242858153724e-02  8.6115042796121727e-02 -1.6116017830264995e-02 2.2331506216412240e-02  9.7084493700639707e-02 -1.6073259881708411e-02 2.2303418525160670e-02  1.0808782389194961e-01 -1.6110078901484182e-02 2.2368743464680787e-02  1.1912630581964656e-01 -1.6298445680407510e-02 2.2584624911986057e-02  6.5037366969514843e-02 -2.1527681689270158e-02 2.2210195290622722e-02  5.4336611992245570e-02 -2.1359957840017121e-02 2.2002661713615021e-02  7.5791589059185552e-02 -2.1533415825068722e-02 2.2263003097672478e-02  8.6608330777999842e-02 -2.1486866767107777e-02 2.2265769442020831e-02  9.7491344171065794e-02 -2.1464215529415718e-02 2.2292193487875592e-02  1.0843936632275422e-01 -2.1524939606039812e-02 2.2401570893131127e-02  1.1942983267732991e-01 -2.1720254965106923e-02 2.2652582285946909e-02  6.5797298376064295e-02 -2.6699993888445125e-02 2.2088995641941285e-02  5.5386207695351700e-02 -2.6491644793870554e-02 2.1810036748633667e-02  7.6348912779689082e-02 -2.6756285484233124e-02 2.2194597400863228e-02  8.7034064670513653e-02 -2.6760427305057240e-02 2.2235277205659629e-02  9.7836988904176331e-02 -2.6784065276266169e-02 2.2289336971729752e-02  1.0873746972588930e-01 -2.6880779025589704e-02 2.2421912440237338e-02  1.1969400273619772e-01 -2.7071702966534484e-02 2.2702534204346082e-02  6.6278164118702063e-02 -3.1681295109535566e-02 2.2189388655793705e-02  5.6148411371235704e-02 -3.1347412856558156e-02 2.1953032400205422e-02  7.6664356489794014e-02 -3.1854529613422645e-02 2.2257304158536349e-02  8.7266878461493280e-02 -3.1957009438041119e-02 2.2265428453522983e-02  9.8043509031069467e-02 -3.2055810781901929e-02 2.2291280037376571e-02  1.0894634593023683e-01 -3.2200449067723055e-02 2.2399990442542001e-02  1.1991031026322214e-01 -3.2405504380170300e-02 2.2677364785057559e-02  6.5209137201111350e-02 2.7641488721650675e-02 1.6795027964133187e-02  6.5651028397112302e-02 3.2664452802148386e-02 1.6935761338752613e-02  5.5286418774804204e-02 3.2432296958868186e-02 1.6759375594157529e-02  5.4585410989154495e-02 2.7514028882052264e-02 1.6557608291016369e-02  7.5933165640825959e-02 2.7642525809739450e-02 1.6867649821722647e-02  7.6227453735428038e-02 3.2766859176747251e-02 1.6954514676891221e-02  8.6743349889238264e-02 2.7614099530346107e-02 1.6878941748468945e-02  8.6967276763926293e-02 3.2823528758960961e-02 1.6919584989066771e-02  9.7628332405327964e-02 2.7622419614657098e-02 1.6903492541915432e-02  9.7832022693652793e-02 3.2