<?xml version="1.0"?>
<VTKFile type="UnstructuredGrid"  version="0.1"  >
<UnstructuredGrid>
<Piece  NumberOfPoints="2197" NumberOfCells="10368">
<Points>
<DataArray  type="Float64"  NumberOfComponents="3"  format="ascii">0 0 0  0.08333333333333333 0 0  0.1666666666666667 0 0  0.25 0 0  0.3333333333333333 0 0  0.4166666666666667 0 0  0.5 0 0  0.5833333333333334 0 0  0.6666666666666666 0 0  0.75 0 0  0.8333333333333334 0 0  0.9166666666666666 0 0  1 0 0  0 0.08333333333333333 0  0.08333333333333333 0.08333333333333333 0  0.1666666666666667 0.08333333333333333 0  0.25 0.08333333333333333 0  0.3333333333333333 0.08333333333333333 0  0.4166666666666667 0.08333333333333333 0  0.5 0.08333333333333333 0  0.5833333333333334 0.08333333333333333 0  0.6666666666666666 0.08333333333333333 0  0.75 0.08333333333333333 0  0.8333333333333334 0.08333333333333333 0  0.9166666666666666 0.08333333333333333 0  1 0.08333333333333333 0  0 0.1666666666666667 0  0.08333333333333333 0.1666666666666667 0  0.1666666666666667 0.1666666666666667 0  0.25 0.1666666666666667 0  0.3333333333333333 0.1666666666666667 0  0.4166666666666667 0.1666666666666667 0  0.5 0.1666666666666667 0  0.5833333333333334 0.1666666666666667 0  0.6666666666666666 0.1666666666666667 0  0.75 0.1666666666666667 0  0.8333333333333334 0.1666666666666667 0  0.9166666666666666 0.1666666666666667 0  1 0.1666666666666667 0  0 0.25 0  0.08333333333333333 0.25 0  0.1666666666666667 0.25 0  0.25 0.25 0  0.3333333333333333 0.25 0  0.4166666666666667 0.25 0  0.5 0.25 0  0.5833333333333334 0.25 0  0.6666666666666666 0.25 0  0.75 0.25 0  0.8333333333333334 0.25 0  0.9166666666666666 0.25 0  1 0.25 0  0 0.3333333333333333 0  0.08333333333333333 0.3333333333333333 0  0.1666666666666667 0.3333333333333333 0  0.25 0.3333333333333333 0  0.3333333333333333 0.3333333333333333 0  0.4166666666666667 0.3333333333333333 0  0.5 0.3333333333333333 0  0.5833333333333334 0.3333333333333333 0  0.6666666666666666 0.3333333333333333 0  0.75 0.3333333333333333 0  0.8333333333333334 0.3333333333333333 0  0.9166666666666666 0.3333333333333333 0  1 0.3333333333333333 0  0 0.4166666666666667 0  0.08333333333333333 0.4166666666666667 0  0.1666666666666667 0.4166666666666667 0  0.25 0.4166666666666667 0  0.3333333333333333 0.4166666666666667 0  0.4166666666666667 0.4166666666666667 0  0.5 0.4166666666666667 0  0.5833333333333334 0.4166666666666667 0  0.6666666666666666 0.4166666666666667 0  0.75 0.4166666666666667 0  0.8333333333333334 0.4166666666666667 0  0.9166666666666666 0.4166666666666667 0  1 0.4166666666666667 0  0 0.5 0  0.08333333333333333 0.5 0  0.1666666666666667 0.5 0  0.25 0.5 0  0.3333333333333333 0.5 0  0.4166666666666667 0.5 0  0.5 0.5 0  0.5833333333333334 0.5 0  0.6666666666666666 0.5 0  0.75 0.5 0  0.8333333333333334 0.5 0  0.9166666666666666 0.5 0  1 0.5 0  0 0.5833333333333334 0  0.08333333333333333 0.5833333333333334 0  0.1666666666666667 0.5833333333333334 0  0.25 0.5833333333333334 0  0.3333333333333333 0.5833333333333334 0  0.4166666666666667 0.5833333333333334 0  0.5 0.5833333333333334 0  0.5833333333333334 0.5833333333333334 0  0.6666666666666666 0.5833333333333334 0  0.75 0.5833333333333334 0  0.8333333333333334 0.5833333333333334 0  0.9166666666666666 0.5833333333333334 0  1 0.5833333333333334 0  0 0.6666666666666666 0  0.08333333333333333 0.6666666666666666 0  0.1666666666666667 0.6666666666666666 0  0.25 0.6666666666666666 0  0.3333333333333333 0.6666666666666666 0  0.4166666666666667 0.6666666666666666 0  0.5 0.6666666666666666 0  0.5833333333333334 0.6666666666666666 0  0.6666666666666666 0.6666666666666666 0  0.75 0.6666666666666666 0  0.8333333333333334 0.6666666666666666 0  0.9166666666666666 0.6666666666666666 0  1 0.6666666666666666 0  0 0.75 0  0.08333333333333333 0.75 0  0.1666666666666667 0.75 0  0.25 0.75 0  0.3333333333333333 0.75 0  0.4166666666666667 0.75 0  0.5 0.75 0  0.5833333333333334 0.75 0  0.6666666666666666 0.75 0  0.75 0.75 0  0.8333333333333334 0.75 0  0.9166666666666666 0.75 0  1 0.75 0  0 0.8333333333333334 0  0.08333333333333333 0.8333333333333334 0  0.1666666666666667 0.8333333333333334 0  0.25 0.8333333333333334 0  0.3333333333333333 0.8333333333333334 0  0.4166666666666667 0.8333333333333334 0  0.5 0.8333333333333334 0  0.5833333333333334 0.8333333333333334 0  0.6666666666666666 0.8333333333333334 0  0.75 0.8333333333333334 0  0.8333333333333334 0.8333333333333334 0  0.9166666666666666 0.8333333333333334 0  1 0.8333333333333334 0  0 0.9166666666666666 0  0.08333333333333333 0.9166666666666666 0  0.1666666666666667 0.9166666666666666 0  0.25 0.9166666666666666 0  0.3333333333333333 0.9166666666666666 0  0.4166666666666667 0.9166666666666666 0  0.5 0.9166666666666666 0  0.5833333333333334 0.9166666666666666 0  0.6666666666666666 0.9166666666666666 0  0.75 0.9166666666666666 0  0.8333333333333334 0.9166666666666666 0  0.9166666666666666 0.9166666666666666 0  1 0.9166666666666666 0  0 1 0  0.08333333333333333 1 0  0.1666666666666667 1 0  0.25 1 0  0.3333333333333333 1 0  0.4166666666666667 1 0  0.5 1 0  0.5833333333333334 1 0  0.6666666666666666 1 0  0.75 1 0  0.8333333333333334 1 0  0.9166666666666666 1 0  1 1 0  0 0 0.08333333333333333  0.08333333333333333 0 0.08333333333333333  0.1666666666666667 0 0.08333333333333333  0.25 0 0.08333333333333333  0.3333333333333333 0 0.08333333333333333  0.4166666666666667 0 0.08333333333333333  0.5 0 0.08333333333333333  0.5833333333333334 0 0.08333333333333333  0.6666666666666666 0 0.08333333333333333  0.75 0 0.08333333333333333  0.8333333333333334 0 0.08333333333333333  0.9166666666666666 0 0.08333333333333333  1 0 0.08333333333333333  0 0.08333333333333333 0.08333333333333333  0.08333333333333333 0.08333333333333333 0.08333333333333333  0.1666666666666667 0.08333333333333333 0.08333333333333333  0.25 0.08333333333333333 0.08333333333333333  0.3333333333333333 0.08333333333333333 0.08333333333333333  0.4166666666666667 0.08333333333333333 0.08333333333333333  0.5 0.08333333333333333 0.08333333333333333  0.5833333333333334 0.08333333333333333 0.08333333333333333  0.6666666666666666 0.08333333333333333 0.08333333333333333  0.75 0.08333333333333333 0.08333333333333333  0.8333333333333334 0.08333333333333333 0.08333333333333333  0.9166666666666666 0.08333333333333333 0.08333333333333333  1 0.08333333333333333 0.08333333333333333  0 0.1666666666666667 0.08333333333333333  0.08333333333333333 0.1666666666666667 0.08333333333333333  0.1666666666666667 0.1666666666666667 0.08333333333333333  0.25 0.1666666666666667 0.08333333333333333  0.3333333333333333 0.1666666666666667 0.08333333333333333  0.4166666666666667 0.1666666666666667 0.08333333333333333  0.5 0.1666666666666667 0.08333333333333333  0.5833333333333334 0.1666666666666667 0.08333333333333333  0.6666666666666666 0.1666666666666667 0.08333333333333333  0.75 0.1666666666666667 0.08333333333333333  0.8333333333333334 0.1666666666666667 0.08333333333333333  0.9166666666666666 0.1666666666666667 0.08333333333333333  1 0.1666666666666667 0.08333333333333333  0 0.25 0.08333333333333333  0.08333333333333333 0.25 0.08333333333333333  0.1666666666666667 0.25 0.08333333333333333  0.25 0.25 0.08333333333333333  0.3333333333333333 0.25 0.08333333333333333  0.4166666666666667 0.25 0.08333333333333333  0.5 0.25 0.08333333333333333  0.5833333333333334 0.25 0.08333333333333333  0.6666666666666666 0.25 0.08333333333333333  0.75 0.25 0.08333333333333333  0.8333333333333334 0.25 0.08333333333333333  0.9166666666666666 0.25 0.08333333333333333  1 0.25 0.08333333333333333  0 0.3333333333333333 0.08333333333333333  0.08333333333333333 0.3333333333333333 0.08333333333333333  0.1666666666666667 0.3333333333333333 0.08333333333333333  0.25 0.3333333333333333 0.08333333333333333  0.3333333333333333 0.3333333333333333 0.08333333333333333  0.4166666666666667 0.3333333333333333 0.08333333333333333  0.5 0.3333333333333333 0.08333333333333333  0.5833333333333334 0.3333333333333333 0.08333333333333333  0.6666666666666666 0.3333333333333333 0.08333333333333333  0.75 0.3333333333333333 0.08333333333333333  0.8333333333333334 0.3333333333333333 0.08333333333333333  0.9166666666666666 0.3333333333333333 0.08333333333333333  1 0.3333333333333333 0.08333333333333333  0 0.4166666666666667 0.08333333333333333  0.08333333333333333 0.4166666666666667 0.08333333333333333  0.1666666666666667 0.4166666666666667 0.08333333333333333  0.25 0.4166666666666667 0.08333333333333333  0.3333333333333333 0.4166666666666667 0.08333333333333333  0.4166666666666667 0.4166666666666667 0.08333333333333333  0.5 0.4166666666666667 0.08333333333333333  0.5833333333333334 0.4166666666666667 0.08333333333333333  0.6666666666666666 0.4166666666666667 0.08333333333333333  0.75 0.4166666666666667 0.08333333333333333  0.8333333333333334 0.4166666666666667 0.08333333333333333  0.9166666666666666 0.4166666666666667 0.08333333333333333  1 0.4166666666666667 0.08333333333333333  0 0.5 0.08333333333333333  0.08333333333333333 0.5 0.08333333333333333  0.1666666666666667 0.5 0.08333333333333333  0.25 0.5 0.08333333333333333  0.3333333333333333 0.5 0.08333333333333333  0.4166666666666667 0.5 0.08333333333333333  0.5 0.5 0.08333333333333333  0.5833333333333334 0.5 0.08333333333333333  0.6666666666666666 0.5 0.08333333333333333  0.75 0.5 0.08333333333333333  0.8333333333333334 0.5 0.08333333333333333  0.9166666666666666 0.5 0.08333333333333333  1 0.5 0.08333333333333333  0 0.5833333333333334 0.08333333333333333  0.08333333333333333 0.5833333333333334 0.08333333333333333  0.1666666666666667 0.5833333333333334 0.08333333333333333  0.25 0.5833333333333334 0.08333333333333333  0.3333333333333333 0.5833333333333334 0.08333333333333333  0.4166666666666667 0.5833333333333334 0.08333333333333333  0.5 0.5833333333333334 0.08333333333333333  0.5833333333333334 0.5833333333333334 0.08333333333333333  0.6666666666666666 0.5833333333333334 0.08333333333333333  0.75 0.5833333333333334 0.08333333333333333  0.8333333333333334 0.5833333333333334 0.083
[...]
<PointData  Vectors="u"> 
<DataArray  type="Float64"  Name="u"  NumberOfComponents="3" format="ascii">0.0000000000000000e+00 0.0000000000000000e+00 0.0000000000000000e+00  6.3813544174902898e-02 3.6347379368206104e-02 3.6347379368206076e-02  1.0267458020286291e-01 5.1926030993835630e-02 5.1926030993835616e-02  1.3798730913264215e-01 6.1360139135140997e-02 6.1360139135140983e-02  1.7331212275781815e-01 6.7237726239585530e-02 6.7237726239585557e-02  2.0953765126615678e-01 7.0900396298236301e-02 7.0900396298236301e-02  2.4689374399633263e-01 7.3141261864641885e-02 7.3141261864641899e-02  2.8536871861219237e-01 7.4484747725374764e-02 7.4484747725374847e-02  3.2484909519285948e-01 7.5294973798154349e-02 7.5294973798154433e-02  3.6518186732672164e-01 7.5833091343608799e-02 7.5833091343608897e-02  4.0619322331588031e-01 7.6292954327608520e-02 7.6292954327608603e-02  4.4767084007996766e-01 7.6816679298115711e-02 7.6816679298115823e-02  4.8934706259752347e-01 7.7457274628388612e-02 7.7457274628388861e-02  0.0000000000000000e+00 0.0000000000000000e+00 0.0000000000000000e+00  5.1986111837247731e-02 2.4078885259613957e-02 3.6885092752638765e-02  9.2744306074250438e-02 4.0543647081640335e-02 5.2797652073650350e-02  1.3093201553496636e-01 5.0342838329299089e-02 6.1946006229589810e-02  1.6847020337080737e-01 5.6187577345141355e-02 6.7629706615539978e-02  2.0627170204205139e-01 5.9638469332085838e-02 7.1160360606221509e-02  2.4471691260388981e-01 6.1611110116908216e-02 7.3308612262538861e-02  2.8391432014231754e-01 6.2688038826521367e-02 7.4586115740519807e-02  3.2384003697492308e-01 6.3258975781990398e-02 7.5348693646911602e-02  3.6440892184861429e-01 6.3595641156787425e-02 7.5851914354566868e-02  4.0550478660984213e-01 6.3897725574770414e-02 7.6286701411818758e-02  4.4698118585789637e-01 6.4316537918838484e-02 7.6795862032863316e-02  4.8864685070978670e-01 6.4958514423998484e-02 7.7436499968979708e-02  0.0000000000000000e+00 0.0000000000000000e+00 0.0000000000000000e+00  4.9012491739778154e-02 1.6309321702415242e-02 3.7674096847355266e-02  8.7582950944862251e-02 2.9896269886057026e-02 5.4092775468582377e-02  1.2572496440943004e-01 3.9027659087917457e-02 6.3185036087742549e-02  1.6408361358262727e-01 4.4647974562501906e-02 6.8606192502793678e-02  2.0283610816253689e-01 4.7922187347167668e-02 7.1874180143809460e-02  2.4211496365400020e-01 4.9716662742324766e-02 7.3802310588873279e-02  2.8196357928899557e-01 5.0621991642774360e-02 7.4905719764196743e-02  3.2235670077115763e-01 5.1036807008904755e-02 7.5533775163387995e-02  3.6323235890862393e-01 5.1235163684662265e-02 7.5933796110784699e-02  4.0450894681033756e-01 5.1415431886731588e-02 7.6289579723260642e-02  4.4607926201209913e-01 5.1737737313472920e-02 7.6737035902434067e-02  4.8778805489069166e-01 5.2389363132939570e-02 7.7318326576202495e-02  0.0000000000000000e+00 0.0000000000000000e+00 0.0000000000000000e+00  4.8132192589515191e-02 1.1137045176935900e-02 3.8084685434954482e-02  8.5238867787853292e-02 2.0993938615348286e-02 5.5082275556623123e-02  1.2254396870164515e-01 2.8295208566081757e-02 6.4342560631600321e-02  1.6082602971859397e-01 3.3078214943516440e-02 6.9659578983849751e-02  1.9991929662625763e-01 3.5936915601057287e-02 7.2720006738715204e-02  2.3967801020192928e-01 3.7498867315511920e-02 7.4427308613731952e-02  2.7999396817001404e-01 3.8259798165559765e-02 7.5332591982336133e-02  3.2077394668066872e-01 3.8574999608413825e-02 7.5794962424283338e-02  3.6193460493710439e-01 3.8692998077489604e-02 7.6059931885962370e-02  4.0339767831706469e-01 3.8795386506476293e-02 7.6304452742254544e-02  4.4507273122154078e-01 3.9040250343546377e-02 7.6654081780225813e-02  4.8683918999070736e-01 3.9649081304604650e-02 7.7137041083127952e-02  0.0000000000000000e+00 0.0000000000000000e+00 0.0000000000000000e+00  4.7823914650140645e-02 7.0396174526398307e-03 3.8361401585283214e-02  8.4152757080369581e-02 1.3410341665204169e-02 5.5737647163042373e-02  1.2075495889641878e-01 1.8383384864702184e-02 6.5188483960739466e-02  1.5870769090540690e-01 2.1809902891166338e-02 7.0500468702090854e-02  1.9781172500807567e-01 2.3928687779559116e-02 7.3442349889953115e-02  2.3777678458559717e-01 2.5105921789294241e-02 7.4988529596285491e-02  2.7836794625703981e-01 2.5678807185128154e-02 7.5731221968907872e-02  3.1941193264706808e-01 2.5907759773228716e-02 7.6047451826743093e-02  3.6078464890865558e-01 2.5981318370555190e-02 7.6186725621786647e-02  4.0239367728810205e-01 2.6040589256664897e-02 7.6322390974664880e-02  4.4415413064844522e-01 2.6214984135461656e-02 7.6572440008107256e-02  4.8597637473440658e-01 2.6694423473372933e-02 7.6956526388231389e-02  0.0000000000000000e+00 0.0000000000000000e+00 0.0000000000000000e+00  4.7713001961489525e-02 3.4384579102788968e-03 3.8525871014698870e-02  8.3662841689758391e-02 6.5844390792941495e-03 5.6113414473956562e-02  1.1984952945329456e-01 9.0980065061917349e-03 6.5692037988288682e-02  1.5753432101322276e-01 1.0882706430511552e-02 7.1025140077319124e-02  1.9655997448775905e-01 1.2015061107908065e-02 7.3911838714131844e-02  2.3658672693015947e-01 1.2656948408478676e-02 7.5365302773871920e-02  2.7730941193738973e-01 1.2974921305953912e-02 7.6005733783343729e-02  3.1849880263673219e-01 1.3105068963431228e-02 7.6224992491251489e-02  3.5999655786556178e-01 1.3148864431467826e-02 7.6277592390115431e-02  4.0169478451003832e-01 1.3183845541034281e-02 7.6335885967848266e-02  4.4350953278106486e-01 1.3283041152754450e-02 7.6514001267734999e-02  4.8537184001761102e-01 1.3553501049744765e-02 7.6827357900566995e-02  0.0000000000000000e+00 0.0000000000000000e+00 0.0000000000000000e+00  4.7682997754143863e-02 4.4866198703059717e-05 3.8580964624345626e-02  8.3515776722581550e-02 1.0045860074515804e-04 5.6238113774314841e-02  1.1956498831238825e-01 1.3405734522122482e-04 6.5861422544942372e-02  1.5715052455280215e-01 1.6118371586427218e-04 7.1205062533105226e-02  1.9613618658256821e-01 1.8352081007281745e-04 7.4075704865016315e-02  2.3617220461393421e-01 2.0283973859768875e-04 7.5498703763181810e-02  2.7693199241827571e-01 2.2068439397119794e-04 7.6104031967678218e-02  3.1816681670842845e-01 2.3802385676930461e-04 7.6289148485429586e-02  3.5970529939667362e-01 2.5536794288861793e-04 7.6310686591945190e-02  4.0143312483908167e-01 2.7297446048777708e-04 7.6340880499363509e-02  4.4326631920680570e-01 2.9086432902939970e-04 7.6492674615927195e-02  4.8514383586528037e-01 3.0650759812112188e-04 7.6780258024113701e-02  0.0000000000000000e+00 0.0000000000000000e+00 0.0000000000000000e+00  4.7705304763127482e-02 -3.3436991108451780e-03 3.8528209539643789e-02  8.3644488477764761e-02 -6.3760838374484338e-03 5.6121339392041315e-02  1.1982267704176458e-01 -8.8232796814505018e-03 6.5702983088517061e-02  1.5750129428939125e-01 -1.0556045448431356e-02 7.1035838979089064e-02  1.9652290533576336e-01 -1.1645905787531836e-02 7.3920527981544346e-02  2.3654755291385288e-01 -1.2250537108664711e-02 7.5371598657456768e-02  2.7726951455132587e-01 -1.2533484336253276e-02 7.6009915395409869e-02  3.1845888907276221e-01 -1.2629182014455568e-02 7.6227514962676879e-02  3.5995676480237093e-01 -1.2638318261237296e-02 7.6278860817458036e-02  4.0165485031245973e-01 -1.2638018995467770e-02 7.6336144204387543e-02  4.4346940016136432e-01 -1.2701262343603302e-02 7.6513223951041140e-02  4.8533405154393910e-01 -1.2939867959052821e-02 7.6825566897900988e-02  0.0000000000000000e+00 0.0000000000000000e+00 0.0000000000000000e+00  4.7805694595824962e-02 -6.9273372918658436e-03 3.8368934804051104e-02  8.4113468056751753e-02 -1.3176990819155595e-02 5.5758156831430837e-02  1.2069901325103516e-01 -1.8088151934945507e-02 6.5214354308569117e-02  1.5863925544527210e-01 -2.1471219490635102e-02 7.0523716614444815e-02  1.9773571288505221e-01 -2.3554236696162523e-02 7.3460095337350872e-02  2.3769744237838578e-01 -2.4697994546113336e-02 7.5000856334160843e-02  2.7828789050218855e-01 -2.5237475799408073e-02 7.5739165667879818e-02  3.1933227289274613e-01 -2.5432436343088123e-02 7.6052130119922220e-02  3.6070545970672629e-01 -2.5471321482573001e-02 7.6189026426304027e-02  4.0231437346077770e-01 -2.5495129228875837e-02 7.6322845105596379e-02  4.4407444298672660e-01 -2.5633115179870155e-02 7.6571028079262221e-02  4.8590094317786697e-01 -2.6078846776282780e-02 7.6953317392739501e-02  0.0000000000000000e+00 0.0000000000000000e+00 0.0000000000000000e+00  4.8097135896464915e-02 -1.0983280702559115e-02 3.8106772249297427e-02  8.5175170077680232e-02 -2.0707731571309070e-02 5.5129900084689182e-02  1.2245373264894512e-01 -2.7965670015413745e-02 6.4391843046732317e-02  1.6071649505001909e-01 -3.2723847692603024e-02 6.9697839949827381e-02  1.9980067831002213e-01 -3.5557380307528370e-02 7.2746531613008494e-02  2.3955707761899039e-01 -3.7090457025047430e-02 7.4444545236797804e-02  2.7987370109460330e-01 -3.7819451107564378e-02 7.5343165729364781e-02  3.2065508267243131e-01 -3.8100787075109110e-02 7.5800939947216539e-02  3.6181680455016102e-01 -3.8183820203372389e-02 7.6062738268296182e-02  4.0328003694492104e-01 -3.8250469800486436e-02 7.6304927897586264e-02  4.4495460466991682e-01 -3.8458449754195781e-02 7.6652296650304638e-02  4.8672612842397833e-01 -3.9030067622791785e-02 7.7133107256103770e-02  0.0000000000000000e+00 0.0000000000000000e+00 0.0000000000000000e+00  4.8961472095945251e-02 -1.6045002684098520e-02 3.7756133596507098e-02  8.7492079714371021e-02 -2.9515897659892924e-02 5.4205740928729221e-02  1.2558608672791363e-01 -3.8662585099198177e-02 6.3266652281824293e-02  1.6392254173716117e-01 -4.4285109949901758e-02 6.8658388432975309e-02  2.0267104730970179e-01 -4.7543000782796628e-02 7.1906070208748216e-02  2.4195219417102584e-01 -4.9310620185714991e-02 7.3821292134515520e-02  2.8180404696434835e-01 -5.0183928273226028e-02 7.4916617121661380e-02  3.2219976770893205e-01 -5.0564273722185832e-02 7.5539571508293060e-02  3.6307703359638605e-01 -5.0726987628609152e-02 7.5936264827769120e-02  4.0435422146849276e-01 -5.0871006448079487e-02 7.6289722095200810e-02  4.4592438456926997e-01 -5.1156280596629515e-02 7.6735153111444465e-02  4.8763683915306522e-01 -5.1765663159317021e-02 7.7314607056749168e-02  0.0000000000000000e+00 0.0000000000000000e+00 0.0000000000000000e+00  5.1989914744946804e-02 -2.3470932788641940e-02 3.7379300429439877e-02  9.2597245349182622e-02 -4.0110170746894935e-02 5.2988499790713323e-02  1.3070903171267154e-01 -4.9979101660134487e-02 6.2051763007187691e-02  1.6824799334433904e-01 -5.5832439746056908e-02 6.7683790125419169e-02  2.0606114328012654e-01 -5.9265049334249198e-02 7.1189192975620527e-02  2.4451480590553260e-01 -6.1208775937163777e-02 7.3324328695822491e-02  2.8371743290716012e-01 -6.2252363615052805e-02 7.4594520061787892e-02  3.2364631959874629e-01 -6.2788084508539926e-02 7.5352805514328006e-02  3.6421708983354545e-01 -6.3088653550519139e-02 7.5853279298558590e-02  4.0531414309025804e-01 -6.3353785012910807e-02 7.6286029300430852e-02  4.4679180168569671e-01 -6.3734486236542418e-02 7.6793884450560054e-02  4.8845767747018709e-01 -6.4331588910290061e-02 7.7434912273041875e-02  0.0000000000000000e+00 0.0000000000000000e+00 0.0000000000000000e+00  6.4102453180595320e-02 -3.5614855966445230e-02 3.6143735699603538e-02  1.0234504497397975e-01 -5.1615137131496638e-02 5.2122171268897448e-02  1.3763363570737827e-01 -6.1010001972720641e-02 6.1460619758681230e-02  1.7301755225752258e-01 -6.6873588013248414e-02 6.7279014386413191e-02  2.0927439730222988e-01 -7.0516181717023688e-02 7.0917445303319337e-02  2.4664510687162614e-01 -7.2729689363107100e-02 7.3148069957412937e-02  2.8512768821739654e-01 -7.4041691617094202e-02 7.4486794127879605e-02  3.2461209356509230e-01 -7.4818314642201872e-02 7.5294759871649075e-02  3.6494686661599357e-01 -7.5321840285029293e-02 7.5831751296852948e-02  4.0596125408593747e-01 -7.5746718883189568e-02 7.6290539163112431e-02  4.4744990463044737e-01 -7.6234185150361192e-02 7.6812281533849502e-02  4.8913399853705419e-01 -7.6841144260467509e-02 7.7461688482406935e-02  0.0000000000000000e+00 0.0000000000000000e+00 0.0000000000000000e+00  5.1986111837247738e-02 3.6885092752638779e-02 2.4078885259613939e-02  9.2744306074250452e-02 5.2797652073650343e-02 4.0543647081640342e-02  1.3093201553496633e-01 6.1946006229589803e-02 5.0342838329299089e-02  1.6847020337080737e-01 6.7629706615539978e-02 5.6187577345141376e-02  2.0627170204205136e-01 7.1160360606221509e-02 5.9638469332085872e-02  2.4471691260388978e-01 7.3308612262538833e-02 6.1611110116908265e-02  2.8391432014231760e-01 7.4586115740519751e-02 6.2688038826521394e-02  3.2384003697492303e-01 7.5348693646911546e-02 6.3258975781990509e-02  3.6440892184861440e-01 7.5851914354566785e-02 6.3595641156787466e-02  4.0550478660984207e-01 7.6286701411818730e-02 6.3897725574770511e-02  4.4698118585789626e-01 7.6795862032863232e-02 6.4316537918838540e-02  4.8864685070978675e-01 7.7436499968979569e-02 6.4958514423998637e-02  0.0000000000000000e+00 0.0000000000000000e+00 0.0000000000000000e+00  3.9377102310251696e-02 2.4066294605615355e-02 2.4066294605615348e-02  8.2752450386087376e-02 4.0397932809260587e-02 4.0397932809260587e-02  1.2402946462359456e-01 5.0187797762251567e-02 5.0187797762251567e-02  1.6377938170213596e-01 5.6051668424936162e-02 5.6051668424936148e-02  2.0313045926151729e-01 5.9529248097373554e-02 5.9529248097373574e-02  2.4263941486790677e-01 6.1528918519797748e-02 6.1528918519797790e-02  2.8253788629521792e-01 6.2630459260124893e-02 6.2630459260124949e-02  3.2289207904791756e-01 6.3222622578266927e-02 6.3222622578266982e-02  3.6368436798506498e-01 6.3577120649491323e-02 6.3577120649491364e-02  4.0485465506435409e-01 6.3893904935695814e-02 6.3893904935695883e-02  4.4631913935349476e-01 6.4323632420734814e-02 6.4323632420734897e-02  4.8795855640925029e-01 6.4957208896168503e-02 6.4957208896168572e-02  0.0000000000000000e+00 0.0000000000000000e+00 0.0000000000000000e+00  3.6050200512925290e-02 1.6032829886323565e-02 2.4594625297952880e-02  7.7454572976720648e-02 2.9475009826220071e-02 4.1190006906747276e-02  1.1884526462807446e-01 3.8538182331619326e-02 5.0979217968029074e-02  1.5949502478636221e-01 4.4201068401990187e-02 5.6693421132284254e-02  1.9981638241149327e-01 4.7559446418125408e-02 6.0002000470436204e-02  2.4015250297370411e-01 4.9444799564528921e-02 6.1855369007239862e-02  2.8068685494076040e-01 5.0433380677363401e-02 6.2840671867486805e-02  3.2149197874900370e-01 5.0919386869514055e-02 6.3343757010115867e-02  3.6257681216910503e-01 5.1176968586947383e-02 6.3630949805109707e-02  4.0391750867679643e-01 5.1406248175014976e-02 6.3896699546696634e-02  4.4547153034855302e-01 5.1767795259860180e-02 6.4284687943800642e-02  4.8715853814010684e-01 5.2419005167028215e-02 6.4870965884802206e-02  0.0000000000000000e+00 0.0000000000000000e+00 0.0000000000000000e+00  3.4908455268499297e-02 1.0888651321887691e-02 2.4970628265471979e-02  7.4929721031145036e-02 2.0587788653917583e-02 4.1955881112491489e-02  1.1564064053229768e-01 2.7790227078622408e-02 5.1876414825375097e-02  1.5630985750638379e-01 3.2581469776202882e-02 5.7520361726319101e-02  1.9701225171013823e-01 3.5510206470099483e-02 6.0672147435903163e-02  2.3783513940051962e-01 3.7165890385422048e-02 6.2352974584120410e-02  2.7882783345242090e-01 3.8021767513527711e-02 6.3181430658466931e-02  3.2000559255280403e-01 3.8423067462666501e-02 6.3553017622431138e-02  3.6136195280272465e-01 3.8615696667784631e-02 6.3733589621073783e-02  4.0287999735578089e-01 3.8782135703131007e-02 6.3912773913018861e-02  4.4453707699644129e-01 3.9080318369904651e-02 6.4227498642564551e-02  4.8629017105784367e-01 3.9696312208654654e-02 6.4747795490443363e-02  0.0000000000000000e+00 0.0000000000000000e+00 0.0000000000000000e+00  3.4427107399632936e-02 6.8512024907099187e-03 2.5235792921291980e-02  7.3687653557427013e-02 1.3115317351272469e-02 4.2511062054151810e-02  1.1380049261776383e-01 1.8002380724076891e-02 5.2581789714270147e-02  1.5422667072303273e-01 2.1418863721154608e-02 5.8223454168848804e-02  1.9498632673318234e-01 2.3579401835385635e-02 6.1278751170715073e-02  2.3603160379106958e-01 2.4824709749011919e-02 6.2825839250672422e-02  2.7729812032828366e-01 2.5472852239444586e-02 6.3518197382187710e-02  3.1873111679441607e-01 2.5773727122323221e-02 6.3767321530439874e-02  3.6028987750134522e-01 2.5911943769211378e-02 6.3843340449792507e-02  4.0194735099270590e-01 2.6028244540524537e-02 6.3934102057420519e-02  4.4368915306337070e-01 2.6250954350614107e-02 6.4172901973214361e-02  4.8550507294951512e-01 2.6739703337745314e-02 6.4629096095512234e-02  0.0000000000000000e+00 0.0000000000000000e+00 0.0000000000000000e+00  3.4216229322376591e-02 3.3227980910614172e-03 2.5393039942564609e-02  7.3099941503910748e-02 6.4291519960885000e-03 4.2840051252633307e-02  1.1285204100450501e-01 8.8934946499676301e-03 5.3015508388165003e-02  1.5306517770449218e-01 1.0669655782847232e-02 5.8674702554163870e-02  1.9378126204161625e-01 1.1821312711398567e-02 6.1683192438468280e-02  2.3490336671419559e-01 1.2498371343409564e-02 6.3151020485669257e-02  2.7630367819281332e-01 1.2857214970344626e-02 6.3755635872252733e-02  3.1787815135480219e-01 1.3027680765488344e-02 6.3921679726400948e-02  3.5955662313185094e-01 1.3108549247183974e-02 6.3924191941126252e-02  4.0129957871791450e-01 1.3176747650454257e-02 6.3951202569868568e-02  4.4309539345434590e-01 1.3304291544568973e-02 6.4134816681109957e-02  4.8495570118615089e-01 1.3581671330148941e-02 6.4545547731900452e-02  0.0000000000000000e+00 0.0000000000000000e+00 0.0000000000000000e+00  3.4152756224623791e-02 6.7818371748821556e-06 2.5446162790584766e-02  7.2919260804911096e-02 9.2192072091590700e-05 4.2950403394256681e-02  1.1255137620078544e-01 1.2264993006247965e-04 5.3162930826090325e-02  1.5268418686060523e-01 1.5303381994535446e-04 5.8830847512161673e-02  1.9337311007471950e-01 1.7800296859485566e-04 6.1825471012711686e-02  2.3451046184376761e-01 1.9920754817923992e-04 6.3266986545242987e-02  2.7594910106274867e-01 2.1844091749639654e-04 6.3841254859784910e-02  3.1756786000072984e-01 2.3684547425175829e-04 6.3977878170389788e-02  3.5928533693041748e-01 2.5504718460687671e-04 6.3953939824436964e-02  4.0105672628577627e-01 2.7334952124963676e-04 6.3957750160551524e-02  4.4287099763118620e-01 2.9174957539834535e-04 6.4121173129144254e-02  4.8474789983275829e-01 3.0944339898937063e-04 6.4515570982787665e-02  0.0000000000000000e+00 0.0000000000000000e+00 0.0000000000000000e+00  3.4205953162173924e-02 -3.3057063470082393e-03 2.5397342240860734e-02  7.3079054715550290e-02 -6.2393320953877023e-03 4.2846811146555135e-02  1.1282511977620778e-01 -8.6426821619972546e-03 5.3023865511668170e-02  1.5303412996021745e-01 -1.0359803785175143e-02 5.8682679334192182e-02  1.9374687654200376e-01 -1.1463469575615370e-02 6.1689553510501843e-02  2.3486660701356102e-01 -1.2099385939610094e-02 6.3155536132386586e-02  2.7626559079426999e-01 -1.2420358670773655e-02 6.3758596084576860e-02  3.1783951531535881e-01 -1.2554215303767205e-02 6.3923493465726663e-02  3.5951783143517912e-01 -1.2598715302426020e-02 6.3925197753592081e-02  4.0126070521375040e-01 -1.2630296453143543e-02 6.3951581590867515e-02  4.4305661642021071e-01 -1.2721004949369214e-02 6.4134551260524794e-02  4.8491906210379249e-01 -1.2962855211381961e-02 6.4545285598971283e-02  0.0000000000000000e+00 0.0000000000000000e+00 0.0000000000000000e+00  3.4402446255862099e-02 -6.8228105749263187e-03 2.5246786816532859e-02  7.3642349341015809e-02 -1.2906969035622426e-02 4.2528586329733352e-02  1.1374522313243871e-01 -1.7734250726403472e-02 5.2601541913451767e-02  1.5416346308589343e-01 -2.1098641490913145e-02 5.8240629698956763e-02  1.9491635842629182e-01 -2.3217192274977205e-02 6.1291536297478424e-02  2.3595721150631410e-01 -2.4424679605385607e-02 6.2834515259845319e-02  2.7722156705806594e-01 -2.5036318744331463e-02 6.3523726135283148e-02  3.1865384641315392e-01 -2.5300953213594612e-02 6.3770645340167673e-02  3.6021252491506078e-01 -2.5402809373647313e-02 6.3845153354980325e