<?xml version="1.0"?>
<VTKFile type="UnstructuredGrid"  version="0.1"  >
<UnstructuredGrid>
<Piece  NumberOfPoints="637" NumberOfCells="2592">
<Points>
<DataArray  type="Float64"  NumberOfComponents="3"  format="ascii">0.5 0 0.5  0.5833333333333334 0 0.5  0.5833333333333334 0.08333333333333333 0.5  0.5833333333333334 0.08333333333333333 0.5833333333333334  0.5833333333333334 0 0.5833333333333334  0.5 0 0.5833333333333334  0.5 0.08333333333333333 0.5  0.5 0.08333333333333333 0.5833333333333334  0.6666666666666666 0 0.5  0.6666666666666666 0.08333333333333333 0.5  0.6666666666666666 0.08333333333333333 0.5833333333333334  0.6666666666666666 0 0.5833333333333334  0.75 0 0.5  0.75 0.08333333333333333 0.5  0.75 0.08333333333333333 0.5833333333333334  0.75 0 0.5833333333333334  0.8333333333333334 0 0.5  0.8333333333333334 0.08333333333333333 0.5  0.8333333333333334 0.08333333333333333 0.5833333333333334  0.8333333333333334 0 0.5833333333333334  0.9166666666666666 0 0.5  0.9166666666666666 0.08333333333333333 0.5  0.9166666666666666 0.08333333333333333 0.5833333333333334  0.9166666666666666 0 0.5833333333333334  1 0 0.5  1 0.08333333333333333 0.5  1 0.08333333333333333 0.5833333333333334  1 0 0.5833333333333334  0.5833333333333334 0.1666666666666667 0.5  0.5833333333333334 0.1666666666666667 0.5833333333333334  0.5 0.1666666666666667 0.5  0.5 0.1666666666666667 0.5833333333333334  0.6666666666666666 0.1666666666666667 0.5  0.6666666666666666 0.1666666666666667 0.5833333333333334  0.75 0.1666666666666667 0.5  0.75 0.1666666666666667 0.5833333333333334  0.8333333333333334 0.1666666666666667 0.5  0.8333333333333334 0.1666666666666667 0.5833333333333334  0.9166666666666666 0.1666666666666667 0.5  0.9166666666666666 0.1666666666666667 0.5833333333333334  1 0.1666666666666667 0.5  1 0.1666666666666667 0.5833333333333334  0.5833333333333334 0.25 0.5  0.5833333333333334 0.25 0.5833333333333334  0.5 0.25 0.5  0.5 0.25 0.5833333333333334  0.6666666666666666 0.25 0.5  0.6666666666666666 0.25 0.5833333333333334  0.75 0.25 0.5  0.75 0.25 0.5833333333333334  0.8333333333333334 0.25 0.5  0.8333333333333334 0.25 0.5833333333333334  0.9166666666666666 0.25 0.5  0.9166666666666666 0.25 0.5833333333333334  1 0.25 0.5  1 0.25 0.5833333333333334  0.5833333333333334 0.3333333333333333 0.5  0.5833333333333334 0.3333333333333333 0.5833333333333334  0.5 0.3333333333333333 0.5  0.5 0.3333333333333333 0.5833333333333334  0.6666666666666666 0.3333333333333333 0.5  0.6666666666666666 0.3333333333333333 0.5833333333333334  0.75 0.3333333333333333 0.5  0.75 0.3333333333333333 0.5833333333333334  0.8333333333333334 0.3333333333333333 0.5  0.8333333333333334 0.3333333333333333 0.5833333333333334  0.9166666666666666 0.3333333333333333 0.5  0.9166666666666666 0.3333333333333333 0.5833333333333334  1 0.3333333333333333 0.5  1 0.3333333333333333 0.5833333333333334  0.5833333333333334 0.4166666666666667 0.5  0.5833333333333334 0.4166666666666667 0.5833333333333334  0.5 0.4166666666666667 0.5  0.5 0.4166666666666667 0.5833333333333334  0.6666666666666666 0.4166666666666667 0.5  0.6666666666666666 0.4166666666666667 0.5833333333333334  0.75 0.4166666666666667 0.5  0.75 0.4166666666666667 0.5833333333333334  0.8333333333333334 0.4166666666666667 0.5  0.8333333333333334 0.4166666666666667 0.5833333333333334  0.9166666666666666 0.4166666666666667 0.5  0.9166666666666666 0.4166666666666667 0.5833333333333334  1 0.4166666666666667 0.5  1 0.4166666666666667 0.5833333333333334  0.5833333333333334 0.5 0.5  0.5833333333333334 0.5 0.5833333333333334  0.5 0.5 0.5  0.5 0.5 0.5833333333333334  0.6666666666666666 0.5 0.5  0.6666666666666666 0.5 0.5833333333333334  0.75 0.5 0.5  0.75 0.5 0.5833333333333334  0.8333333333333334 0.5 0.5  0.8333333333333334 0.5 0.5833333333333334  0.9166666666666666 0.5 0.5  0.9166666666666666 0.5 0.5833333333333334  1 0.5 0.5  1 0.5 0.5833333333333334  0.5833333333333334 0.5833333333333334 0.5  0.5833333333333334 0.5833333333333334 0.5833333333333334  0.5 0.5833333333333334 0.5  0.5 0.5833333333333334 0.5833333333333334  0.6666666666666666 0.5833333333333334 0.5  0.6666666666666666 0.5833333333333334 0.5833333333333334  0.75 0.5833333333333334 0.5  0.75 0.5833333333333334 0.5833333333333334  0.8333333333333334 0.5833333333333334 0.5  0.8333333333333334 0.5833333333333334 0.5833333333333334  0.9166666666666666 0.5833333333333334 0.5  0.9166666666666666 0.5833333333333334 0.5833333333333334  1 0.5833333333333334 0.5  1 0.5833333333333334 0.5833333333333334  0.5833333333333334 0.6666666666666666 0.5  0.5833333333333334 0.6666666666666666 0.5833333333333334  0.5 0.6666666666666666 0.5  0.5 0.6666666666666666 0.5833333333333334  0.6666666666666666 0.6666666666666666 0.5  0.6666666666666666 0.6666666666666666 0.5833333333333334  0.75 0.6666666666666666 0.5  0.75 0.6666666666666666 0.5833333333333334  0.8333333333333334 0.6666666666666666 0.5  0.8333333333333334 0.6666666666666666 0.5833333333333334  0.9166666666666666 0.6666666666666666 0.5  0.9166666666666666 0.6666666666666666 0.5833333333333334  1 0.6666666666666666 0.5  1 0.6666666666666666 0.5833333333333334  0.5833333333333334 0.75 0.5  0.5833333333333334 0.75 0.5833333333333334  0.5 0.75 0.5  0.5 0.75 0.5833333333333334  0.6666666666666666 0.75 0.5  0.6666666666666666 0.75 0.5833333333333334  0.75 0.75 0.5  0.75 0.75 0.5833333333333334  0.8333333333333334 0.75 0.5  0.8333333333333334 0.75 0.5833333333333334  0.9166666666666666 0.75 0.5  0.9166666666666666 0.75 0.5833333333333334  1 0.75 0.5  1 0.75 0.5833333333333334  0.5833333333333334 0.8333333333333334 0.5  0.5833333333333334 0.8333333333333334 0.5833333333333334  0.5 0.8333333333333334 0.5  0.5 0.8333333333333334 0.5833333333333334  0.6666666666666666 0.8333333333333334 0.5  0.6666666666666666 0.8333333333333334 0.5833333333333334  0.75 0.8333333333333334 0.5  0.75 0.8333333333333334 0.5833333333333334  0.8333333333333334 0.8333333333333334 0.5  0.8333333333333334 0.8333333333333334 0.5833333333333334  0.9166666666666666 0.8333333333333334 0.5  0.9166666666666666 0.8333333333333334 0.5833333333333334  1 0.8333333333333334 0.5  1 0.8333333333333334 0.5833333333333334  0.5833333333333334 0.9166666666666666 0.5  0.5833333333333334 0.9166666666666666 0.5833333333333334  0.5 0.9166666666666666 0.5  0.5 0.9166666666666666 0.5833333333333334  0.6666666666666666 0.9166666666666666 0.5  0.6666666666666666 0.9166666666666666 0.5833333333333334  0.75 0.9166666666666666 0.5  0.75 0.9166666666666666 0.5833333333333334  0.8333333333333334 0.9166666666666666 0.5  0.8333333333333334 0.9166666666666666 0.5833333333333334  0.9166666666666666 0.9166666666666666 0.5  0.9166666666666666 0.9166666666666666 0.5833333333333334  1 0.9166666666666666 0.5  1 0.9166666666666666 0.5833333333333334  0.5833333333333334 1 0.5  0.5833333333333334 1 0.5833333333333334  0.5 1 0.5  0.5 1 0.5833333333333334  0.6666666666666666 1 0.5  0.6666666666666666 1 0.5833333333333334  0.75 1 0.5  0.75 1 0.5833333333333334  0.8333333333333334 1 0.5  0.8333333333333334 1 0.5833333333333334  0.9166666666666666 1 0.5  0.9166666666666666 1 0.5833333333333334  1 1 0.5  1 1 0.5833333333333334  0.5833333333333334 0.08333333333333333 0.6666666666666666  0.5833333333333334 0 0.6666666666666666  0.5 0 0.6666666666666666  0.5 0.08333333333333333 0.6666666666666666  0.6666666666666666 0.08333333333333333 0.6666666666666666  0.6666666666666666 0 0.6666666666666666  0.75 0.08333333333333333 0.6666666666666666  0.75 0 0.6666666666666666  0.8333333333333334 0.08333333333333333 0.6666666666666666  0.8333333333333334 0 0.6666666666666666  0.9166666666666666 0.08333333333333333 0.6666666666666666  0.9166666666666666 0 0.6666666666666666  1 0.08333333333333333 0.6666666666666666  1 0 0.6666666666666666  0.5833333333333334 0.1666666666666667 0.6666666666666666  0.5 0.1666666666666667 0.6666666666666666  0.6666666666666666 0.1666666666666667 0.6666666666666666  0.75 0.1666666666666667 0.6666666666666666  0.8333333333333334 0.1666666666666667 0.6666666666666666  0.9166666666666666 0.1666666666666667 0.6666666666666666  1 0.1666666666666667 0.6666666666666666  0.5833333333333334 0.25 0.6666666666666666  0.5 0.25 0.6666666666666666  0.6666666666666666 0.25 0.6666666666666666  0.75 0.25 0.6666666666666666  0.8333333333333334 0.25 0.6666666666666666  0.9166666666666666 0.25 0.6666666666666666  1 0.25 0.6666666666666666  0.5833333333333334 0.3333333333333333 0.6666666666666666  0.5 0.3333333333333333 0.6666666666666666  0.6666666666666666 0.3333333333333333 0.6666666666666666  0.75 0.3333333333333333 0.6666666666666666  0.8333333333333334 0.3333333333333333 0.6666666666666666  0.9166666666666666 0.3333333333333333 0.6666666666666666  1 0.3333333333333333 0.6666666666666666  0.5833333333333334 0.4166666666666667 0.6666666666666666  0.5 0.4166666666666667 0.6666666666666666  0.6666666666666666 0.4166666666666667 0.6666666666666666  0.75 0.4166666666666667 0.6666666666666666  0.8333333333333334 0.4166666666666667 0.6666666666666666  0.9166666666666666 0.4166666666666667 0.6666666666666666  1 0.4166666666666667 0.6666666666666666  0.5833333333333334 0.5 0.6666666666666666  0.5 0.5 0.6666666666666666  0.6666666666666666 0.5 0.6666666666666666  0.75 0.5 0.6666666666666666  0.8333333333333334 0.5 0.6666666666666666  0.9166666666666666 0.5 0.6666666666666666  1 0.5 0.6666666666666666  0.5833333333333334 0.5833333333333334 0.6666666666666666  0.5 0.5833333333333334 0.6666666666666666  0.6666666666666666 0.5833333333333334 0.6666666666666666  0.75 0.5833333333333334 0.6666666666666666  0.8333333333333334 0.5833333333333334 0.6666666666666666  0.9166666666666666 0.5833333333333334 0.6666666666666666  1 0.5833333333333334 0.6666666666666666  0.5833333333333334 0.6666666666666666 0.6666666666666666  0.5 0.6666666666666666 0.6666666666666666  0.6666666666666666 0.6666666666666666 0.6666666666666666  0.75 0.6666666666666666 0.6666666666666666  0.8333333333333334 0.6666666666666666 0.6666666666666666  0.9166666666666666 0.666
[...]
<PointData  Vectors="u"> 
<DataArray  type="Float64"  Name="u"  NumberOfComponents="3" format="ascii">2.3617220461393418e-01 7.5498703763181768e-02 2.0283973859771875e-04  2.7693199241827571e-01 7.6104031967678218e-02 2.2068439397120995e-04  2.7594910106274867e-01 6.3841254859784868e-02 2.1844091749643858e-04  2.7626559079426988e-01 6.3758596084576818e-02 -1.2420358670773634e-02  2.7726951455132581e-01 7.6009915395409827e-02 -1.2533484336253238e-02  2.3654755291385277e-01 7.5371598657456712e-02 -1.2250537108664672e-02  2.3451046184376756e-01 6.3266986545242973e-02 1.9920754817927348e-04  2.3486660701356094e-01 6.3155536132386558e-02 -1.2099385939610050e-02  3.1816681670842839e-01 7.6289148485429559e-02 2.3802385676935275e-04  3.1756786000072984e-01 6.3977878170389760e-02 2.3684547425182551e-04  3.1783951531535887e-01 6.3923493465726650e-02 -1.2554215303767135e-02  3.1845888907276221e-01 7.6227514962676921e-02 -1.2629182014455519e-02  3.5970529939667356e-01 7.6310686591945162e-02 2.5536794288871524e-04  3.5928533693041748e-01 6.3953939824436923e-02 2.5504718460698687e-04  3.5951783143517901e-01 6.3925197753592025e-02 -1.2598715302425905e-02  3.5995676480237077e-01 7.6278860817458022e-02 -1.2638318261237213e-02  4.0143312483908156e-01 7.6340880499363509e-02 2.7297446048789087e-04  4.0105672628577621e-01 6.3957750160551483e-02 2.7334952124975060e-04  4.0126070521375040e-01 6.3951581590867473e-02 -1.2630296453143444e-02  4.0165485031245968e-01 7.6336144204387460e-02 -1.2638018995467676e-02  4.4326631920680570e-01 7.6492674615927181e-02 2.9086432902947706e-04  4.4287099763118615e-01 6.4121173129144199e-02 2.9174957539846721e-04  4.4305661642021060e-01 6.4134551260524766e-02 -1.2721004949369051e-02  4.4346940016136432e-01 7.6513223951041126e-02 -1.2701262343603182e-02  4.8514383586528037e-01 7.6780258024113687e-02 3.0650759812124586e-04  4.8474789983275818e-01 6.4515570982787568e-02 3.0944339898951375e-04  4.8491906210379249e-01 6.4545285598971200e-02 -1.2962855211381796e-02  4.8533405154393899e-01 7.6825566897900890e-02 -1.2939867959052732e-02  2.7420932519680674e-01 5.1313957096557061e-02 2.1712428473789688e-04  2.7452097942233628e-01 5.1247281459016615e-02 -1.2412806854265494e-02  2.3210405609403531e-01 5.0692819825579140e-02 1.9757080600461569e-04  2.3245674128676924e-01 5.0603465088189463e-02 -1.2091571780976657e-02  3.1629262339798531e-01 5.1476657890459881e-02 2.3584087747863591e-04  3.1655860939221314e-01 5.1432373690248327e-02 -1.2548333215862113e-02  3.5830879315960851e-01 5.1464316440377640e-02 2.5427507535819331e-04  3.5853507427963288e-01 5.1440246482096115e-02 -1.2595357954185905e-02  4.0025818874512814e-01 5.1471380666366390e-02 2.7268068696882251e-04  4.0045534022838880e-01 5.1464705652347939e-02 -1.2629263116107821e-02  4.4217804868672378e-01 5.1645844828492680e-02 2.9109369714673631e-04  4.4235574191659560e-01 5.1653339451946681e-02 -1.2719066637870544e-02  4.8412983103504253e-01 5.2134028835134558e-02 3.0914292228068719e-04  4.8429136743167828e-01 5.2151312237125436e-02 -1.2948727162057978e-02  2.7235773717565387e-01 3.8602128687451387e-02 2.1627543786885436e-04  2.7267168487037435e-01 3.8553035414431364e-02 -1.2457448542882972e-02  2.2976181275861102e-01 3.7975599570524647e-02 1.9664380259532051e-04  2.3011766612672943e-01 3.7910409381899518e-02 -1.2152806301308442e-02  3.1483955747780823e-01 3.8796436449880886e-02 2.3510771352884733e-04  3.1510662981433690e-01 3.8763451412657329e-02 -1.2577548578575803e-02  3.5714748888572845e-01 3.8814093650249799e-02 2.5364394645371354e-04  3.5737363838001213e-01 3.8795716105457560e-02 -1.2611291256998201e-02  3.9929246597336143e-01 3.8835366756633100e-02 2.7211112350827279e-04  3.9948832790305672e-01 3.8829443502983195e-02 -1.2633756583353617e-02  4.4133570973458702e-01 3.9009413710938155e-02 2.9056838286004385e-04  4.4151093498943617e-01 3.9013217364498733e-02 -1.2712849427506131e-02  4.8338047043788901e-01 3.9514729530621226e-02 3.0851011092591690e-04  4.8353817706792612e-01 3.9524099361080312e-02 -1.2932720637366698e-02  2.7081104839435716e-01 2.5810151747736904e-02 2.1597521658932740e-04  2.7112902453005566e-01 2.5778489177092176e-02 -1.2514843336412840e-02  2.2792030376325950e-01 2.5288589004544348e-02 1.9645429165196567e-04  2.2828055113552104e-01 2.5246958498215236e-02 -1.2229454754626765e-02  3.1356907388144417e-01 2.5993828128082007e-02 2.3475141691295471e-04  3.1383922095863681e-01 2.5972322341034606e-02 -1.2616073728692265e-02  3.5609784183905491e-01 2.6031437501802635e-02 2.5326707943656735e-04  3.5632595694248570e-01 2.6019242014259026e-02 -1.2632941861828834e-02  3.9839889645487470e-01 2.6063001587798697e-02 2.7172746446160761e-04  3.9859568024348296e-01 2.6058750754964576e-02 -1.2640985970865031e-02  4.4054419494841152e-01 2.6211050469849426e-02 2.9016580236165547e-04  4.4071939246917885e-01 2.6212854038600023e-02 -1.2708413923594572e-02  4.8267460210068769e-01 2.6629730258720563e-02 3.0786673125852369e-04  4.8283121356624675e-01 2.6634500168231136e-02 -1.2921671924593710e-02  2.6980286513368601e-01 1.3008041308628950e-02 2.1613911311192181e-04  2.7012390414394372e-01 1.2992966831223949e-02 -1.2558884024657066e-02  2.2676741890282714e-01 1.2704043950761983e-02 1.9685218376766885e-04  2.2713077463807688e-01 1.2684409869021933e-02 -1.2287425790067979e-02  3.1271473314080678e-01 1.3126816882064156e-02 2.3474488856097838e-04  3.1298742334744178e-01 1.3116489464932298e-02 -1.2646057671713479e-02  3.5537481370884794e-01 1.3162763267591554e-02 2.5314974267125542e-04  3.5560478807564860e-01 1.3156853829007512e-02 -1.2650120300736379e-02  3.9777205713878344e-01 1.3192551863848810e-02 2.7153953527994516e-04  3.9797003964048588e-01 1.3190442565521928e-02 -1.2647246515780235e-02  4.3998257090025328e-01 1.3285241003052240e-02 2.8991110906601697e-04  4.4015837028560933e-01 1.3285997866930492e-02 -1.2706292662064330e-02  4.8217252443362668e-01 1.3528246169772497e-02 3.0741399229685111e-04  4.8232903928695436e-01 1.3530285883987624e-02 -1.2915729622494487e-02  2.6944389552949011e-01 2.1667639464932744e-04 2.1667639464937878e-04  2.6976592919702863e-01 2.1749889302430828e-04 -1.2574898110220604e-02  2.2636647537239912e-01 1.9769777134348690e-04 1.9769777134353507e-04  2.2673074949466099e-01 1.9888166614710708e-04 -1.2308290527439749e-02  3.1240421959532860e-01 2.3503917297580478e-04 2.3503917297584744e-04  3.1267779633634690e-01 2.3557315216919146e-04 -1.2657066962441508e-02  3.5510723575788256e-01 2.5327274449792725e-04 2.5327274449801014e-04  3.5533790752940125e-01 2.5359960890086237e-04 -1.2656502311531403e-02  3.9753652277462753e-01 2.7154810585812628e-04 2.7154810585817366e-04  3.9773500370455162e-01 2.7173728794764986e-04 -1.2649665950507956e-02  4.3976926230053165e-01 2.8983091891093528e-04 2.8983091891099751e-04  4.3994536721405741e-01 2.8992624660806592e-04 -1.2705720846011822e-02  4.8198118959513758e-01 3.0722918698394093e-04 3.0722918698407092e-04  4.8213774192932995e-01 3.0732455550313599e-04 -1.2913910920125928e-02  2.6976592919702863e-01 -1.2574898110220643e-02 2.1749889302435466e-04  2.7008663428017865e-01 -1.2558241548553594e-02 -1.2558241548553530e-02  2.2673074949466102e-01 -1.2308290527439772e-02 1.9888166614711431e-04  2.2709357559485552e-01 -1.2286356628892525e-02 -1.2286356628892487e-02  3.1267779633634690e-01 -1.2657066962441546e-02 2.3557315216923987e-04  3.1295031318421912e-01 -1.2645720397689585e-02 -1.2645720397689516e-02  3.5533790752940120e-01 -1.2656502311531447e-02 2.5359960890090861e-04  3.5556782119241598e-01 -1.2649973751190650e-02 -1.2649973751190608e-02  3.9773500370455162e-01 -1.2649665950508024e-02 2.7173728794770255e-04  3.9793299694064121e-01 -1.2647202865399167e-02 -1.2647202865399092e-02  4.3994536721405736e-01 -1.2705720846011933e-02 2.8992624660812474e-04  4.4012120654854270e-01 -1.2706306592050666e-02 -1.2706306592050598e-02  4.8213774192933007e-01 -1.2913910920125943e-02 3.0732455550322836e-04  4.8229421564431058e-01 -1.2915769785152874e-02 -1.2915769785152863e-02  2.7073717612094261e-01 -2.5377911171387324e-02 2.1853076149959785e-04  2.7105456024738001e-01 -2.5344839821558943e-02 -1.2513741196754948e-02  2.2784664768504628e-01 -2.4892560627222025e-02 2.0032109187144160e-04  2.2820591564174666e-01 -2.4848826011249325e-02 -1.2227565808150157e-02  3.1349539359649486e-01 -2.5525071929597097e-02 2.3628744721163828e-04  3.1376525174741510e-01 -2.5502677800836732e-02 -1.2615519552539610e-02  3.5602433922837640e-01 -2.5525942938644693e-02 2.5408572728202381e-04  3.5625237036897117e-01 -2.5513219812471354e-02 -1.2632722766164287e-02  3.9832521084635969e-01 -2.5520660859175651e-02 2.7207423031509016e-04  3.9852203778647238e-01 -2.5516121233435017e-02 -1.2640936692806345e-02  4.4047019314146491e-01 -2.5631895929993785e-02 2.9017221983278858e-04  4.4064548514958313e-01 -2.5633579334695344e-02 -1.2708451609906624e-02  4.8260486894171573e-01 -2.6015631741961049e-02 3.0767452805807846e-04  4.8276142186568599e-01 -2.6020236495609209e-02 -1.2921754793863855e-02  2.7224720050822376e-01 -3.8171874253174448e-02 2.1971936239324771e-04  2.7256043643797467e-01 -3.8121611056249394e-02 -1.2456198180883539e-02  2.2965082540365828e-01 -3.7581204030190739e-02 2.0194092729897218e-04  2.3000540523197666e-01 -3.7514198498065796e-02 -1.2150554799390723e-02  3.1472963867716924e-01 -3.8329168449764986e-02 2.3713928892737552e-04  3.1499640836290499e-01 -3.8295465930111121e-02 -1.2576978721897737e-02  3.5703796516791081e-01 -3.8309527769878622e-02 2.5468692582838147e-04  3.5726406996388937e-01 -3.8290737008418646e-02 -1.2611132983798923e-02  3.9918287039753447e-01 -3.8293617600188512e-02 2.7250919939881510e-04  3.9937883774050864e-01 -3.8287485680011543e-02 -1.2633786942660727e-02  4.4122570181489013e-01 -3.8430685926941210e-02 2.9052132923690761e-04  4.4140108904603742e-01 -3.8434427684871257e-02 -1.2712934764062690e-02  4.8327531515465560e-01 -3.8900592393525502e-02 3.0821954047184722e-04  4.8343298251175637e-01 -3.8909776592243754e-02 -1.2932820558424920e-02  2.7406320839060394e-01 -5.0885939164894763e-02 2.2104025093310734e-04  2.7437420526079209e-01 -5.0818324491763107e-02 -1.2411755196395599e-02  2.3195650912010654e-01 -5.0302310749972282e-02 2.0366395691643173e-04  2.3230782960840601e-01 -5.0211432477526484e-02 -1.2089519619733173e-02  3.1614738192851632e-01 -5.1010526757416449e-02 2.3810527289325515e-04  3.1641317881892472e-01 -5.0965678639712741e-02 -1.2547968567132460e-02  3.5816394568117821e-01 -5.0960231148935622e-02 2.5536078235098331e-04  3.5839029538045553e-01 -5.0935835972199472e-02 -1.2595432038500581e-02  4.0011337681020503e-01 -5.0929786679860090e-02 2.7297098545395437e-04  4.0031071529534362e-01 -5.0922955463150746e-02 -1.2629541332673378e-02  4.4203310353940994e-01 -5.1067331017355937e-02 2.9089061701250047e-04  4.4221099775433786e-01 -5.1074789363143462e-02 -1.2719298162122410e-02  4.8398843188948243e-01 -5.1518929016740038e-02 3.0883952519766345e-04  4.8414997316621022e-01 -5.1535899772336462e-02 -1.2948724861680222e-02  2.7576904809199759e-01 -6.3411347555153347e-02 2.2241207128483617e-04  2.7608512552900960e-01 -6.3327759797675742e-02 -1.2419748961296613e-02  2.3432959234542608e-01 -6.2875760895483038e-02 2.0535453322944922e-04  2.3468450277955202e-01 -6.2762770705406187e-02 -1.2098018779030698e-02  3.1738811985128673e-01 -6.3510013866609580e-02 2.3910893725996872e-04  3.1765984226696126e-01 -6.3455071358066162e-02 -1.2554199559622815e-02  3.5910567255696874e-01 -6.3448695965151194e-02 2.5602424043986717e-04  3.5933843770306167e-01 -6.3419611093435330e-02 -1.2599153338813816e-02  4.0087702496638300e-01 -6.3415402912977203e-02 2.7335311203026115e-04  4.0108127720202907e-01 -6.3409035797618155e-02 -1.2631043678723251e-02  4.4269174969068598e-01 -6.3542054225623118e-02 2.9110800228245839e-04  4.4287745862290001e-01 -6.3555334396269925e-02 -1.2721717896622053e-02  4.8457001577173059e-01 -6.3898111783994710e-02 3.0925665071726685e-04  4.8474104494457931e-01 -6.3927210767962039e-02 -1.2962541545588008e-02  2.7672038268299975e-01 -7.5656434535888648e-02 2.2194715301297174e-04  2.7705836054950039e-01 -7.5560518798230891e-02 -1.2535999403258651e-02  2.3596277998799531e-01 -7.5082267452932561e-02 2.0454778794958597e-04  2.3633808991558972e-01 -7.4952387909433274e-02 -1.2254534815319523e-02  3.1795372157595592e-01 -7.5808993456559240e-02 2.3886086219155524e-04  3.1824644621025228e-01 -7.5746280343064104e-02 -1.2630709452391082e-02  3.5949121877488316e-01 -7.5797278390707809e-02 2.5599922621074542e-04  3.5974342417093047e-01 -7.5764895118426004e-02 -1.2639100038102464e-02  4.0121891182013869e-01 -7.5794191541368711e-02 2.7362260218843177e-04  4.0144145455808872e-01 -7.5789283807420477e-02 -1.2638172491779101e-02  4.4305382710993862e-01 -7.5912922572713870e-02 2.9198742165494128e-04  4.4325756198241784e-01 -7.5933539284983198e-02 -1.2700462173759154e-02  4.8492905060105085e-01 -7.6165508624068345e-02 3.1126214711586092e-04  4.8511864000759719e-01 -7.6210125342389329e-02 -1.2933764554529147e-02  2.7722156705806583e-01 6.3523726135283107e-02 -2.5036318744331449e-02  2.7828789050218838e-01 7.5739165667879804e-02 -2.5237475799408052e-02  2.3769744237838575e-01 7.5000856334160815e-02 -2.4697994546113305e-02  2.3595721150631407e-01 6.2834515259845333e-02 -2.4424679605385562e-02  3.1865384641315381e-01 6.3770645340167645e-02 -2.5300953213594522e-02  3.1933227289274607e-01 7.6052130119922207e-02 -2.5432436343088057e-02  3.6021252491506073e-01 6.3845153354980255e-02 -2.5402809373647219e-02  3.6070545970672624e-01 7.6189026426303985e-02 -2.5471321482572907e-02  4.0186997696564053e-01 6.3934764853998183e-02 -2.5482450376151437e-02  4.0231437346077770e-01 7.6322845105596338e-02 -2.5495129228875684e-02  4.4361193953034561e-01 6.4172376587248239e-02 -2.5668247968816352e-02  4.4407444298672655e-01 7.6571028079262193e-02 -2.5633115179869988e-02  4.8543162653813737e-01 6.4628553245963907e-02 -2.6120987336950879e-02  4.8590094317786692e-01 7.6953317392739487e-02 -2.6078846776282642e-02  2.7546292105435499e-01 5.1059598478337423e-02 -2.5036860144241991e-02  2.3353765296734108e-01 5.0348788956383887e-02 -2.4431074652675688e-02  3.1735637241459369e-01 5.1309006875103813e-02 -2.5299073374504325e-02  3.5921164307689890e-01 5.1373847610398267e-02 -2.5400989287322963e-02  4.0104482113616591e-01 5.1446818033385744e-02 -2.5481182598058948e-02  4.4288832834379632e-01 5.1675058484849858e-02 -2.5662624169276095e-02  4.8477631014102013e-01 5.2200563149623666e-02 -2.6092401901928478e-02  2.7362009237396534e-01 3.8415748980742480e-02 -2.5134794341808157e-02  2.3120835947177670e-01 3.7726061454192002e-02 -2.4567361727680235e-02  3.1590690428664292e-01 3.8672102708161113e-02 -2.5362239686413185e-02  3.5804899666607165e-01 3.8745338235864991e-02 -2.5434744453166482e-02  4.0007321661668593e-01 3.8813741266661039e-02 -2.5490120433891979e-02  4.4203557646936875e-01 3.9024840447430195e-02 -2.5649149319620580e-02  4.8401113320692457e-01 3.9551862263401079e-02 -2.6059105684845225e-02  2.7208871213876362e-01 2.5690140817248644e-02 -2.5254215130007342e-02  2.2938424470476426e-01 2.5129593152212176e-02 -2.4728656797886099e-02  3.1464759746841731e-01 2.5912870338973184e-02 -2.5441479126115895e-02  3.5700600279966149e-01 2.5985875821174509e-02 -2.5478580584533027e-02  3.9918215671582941e-01 2.6047532150801817e-02 -2.5504030177944816e-02  4.4124285110461298e-01 2.6218781104779515e-02 -2.5638952076148455e-02  4.8329980460496424e-01 2.6649383454648717e-02 -2.6034491983990760e-02  2.7109218065356550e-01 1.2950455277723124e-02 -2.5344702622202658e-02  2.2824364788957921e-01 1.2628411026808421e-02 -2.4848866024837251e-02  3.1380257424011537e-01 1.3087661901639902e-02 -2.5502479455797814e-02  3.5628945774214688e-01 1.3140537196215624e-02 -2.5513032322998615e-02  3.9855914160541256e-01 1.3184824246833721e-02 -2.5515985228598076e-02  4.4068268605934025e-01 1.3288614448761832e-02 -2.5633507181507337e-02  4.8279641636681531e-01 1.3536951485712052e-02 -2.6020241115599932e-02  2.7073717612094256e-01 2.1853076149955380e-04 -2.5377911171387265e-02  2.2784664768504626e-01 2.0032109187142409e-04 -2.4892560627221991e-02  3.1349539359649486e-01 2.3628744721160155e-04 -2.5525071929597059e-02  3.5602433922837634e-01 2.5408572728198038e-04 -2.5525942938644651e-02  3.9832521084635952e-01 2.7207423031509422e-04 -2.5520660859175575e-02  4.4047019314146502e-01 2.9017221983276403e-04 -2.5631895929993730e-02  4.8260486894171611e-01 3.0767452805799503e-04 -2.6015631741960938e-02  2.7105456024737995e-01 -1.2513741196754967e-02 -2.5344839821558884e-02  2.2820591564174666e-01 -1.2227565808150181e-02 -2.4848826011249298e-02  3.1376525174741510e-01 -1.2615519552539655e-02 -2.5502677800836687e-02  3.5625237036897112e-01 -1.2632722766164329e-02 -2.5513219812471316e-02  3.9852203778647238e-01 -1.2640936692806375e-02 -2.5516121233434972e-02  4.4064548514958335e-01 -1.2708451609906723e-02 -2.5633579334695292e-02  4.8276142186568632e-01 -1.2921754793863892e-02 -2.6020236495609098e-02  2.7201367060430004e-01 -2.5254704134048084e-02 -2.5254704134048032e-02  2.2930868939582658e-01 -2.4728912187170014e-02 -2.4728912187169983e-02  3.1457328865193174e-01 -2.5441998255638941e-02 -2.5441998255638920e-02  3.5693222560316518e-01 -2.5479019313868759e-02 -2.5479019313868749e-02  3.9910841891887117e-01 -2.5504325036183301e-02 -2.5504325036183259e-02  4.4116888660277970e-01 -2.5639088904133137e-02 -2.5639088904133075e-02  4.8322970387150749e-01 -2.6034483441373088e-02 -2.6034483441373039e-02  2.7350826857354116e-01 -3.7982797190329133e-02 -2.5135966162472361e-02  2.3109508646401158e-01 -3.7327637461223306e-02 -2.4568463746163411e-02  3.1579636487717949e-01 -3.8203070214923841e-02 -2.5363268077764279e-02  3.5793924995178966e-01 -3.8239647621977978e-02 -2.5435545588349606e-02  3.9996363286108810e-01 -3.8271296011237091e-02 -2.5490631576233897e-02  4.4192566781925852e-01 -3.8445699377767137e-02 -2.5649340007517982e-02  4.8390554249235607e-01 -3.8936928548942096e-02 -2.6059057640173335e-02  2.7531585513826429e-01 -5.0629351758432535e-02 -2.5038977746856515e-02  2.3338802779658965e-01 -4.9954859902752315e-02 -2.4433516306919083e-02  3.1721082343349943e-01 -5.0841420058729402e-02 -2.5300766855782295e-02  3.5906678969869382e-01 -5.0868818367542409e-02 -2.5402284280831699e-02  4.0090012327342267e-01 -5.0904644048894596e-02 -2.5482049310018663e-02  4.4274347665929936e-01 -5.1096196512446776e-02 -2.5662926195006378e-02  4.8463445981323933e-01 -5.1584461695034271e-02 -2.6092165995963975e-02  2.7704136523238843e-01 -6.3091737668854814e-02 -2.5039366733325595e-02  2.3577505223287290e-01 -6.2439967637018055e-02 -2.4428557761129888e-02  3.1847444310737189e-01 -6.3301434474366050e-02 -2.5303307018390741e-02  3.6003326810569974e-01 -6.3338989935135259e-02 -2.5404662614783673e-02  4.0169049323529704e-01 -6.3391776326489402e-02 -2.5483887366838445e-02  4.4343244488691363e-01 -6.3592786277154076e-02 -2.5668995582541154e-02  4.8525282420721333e-01 -6.4009478100803791e-02 -2.6120263166883005e-02  2.7807803112738994e-01 -7.5288213400608359e-02 -2.5243799730581704e-02  2.3748949365395222e-01 -7.4579016316642890e-02 -2.4707831214627701e-02  3.1912072143455894e-01 -7.5570021011575797e-02 -2.5436259952284410e-02  3.6049268307863258e-01 -7.5674616234330264e-02 -2.5473407711593645e-02  4.0210136869901952e-01 -7.5775789214915068e-02 -2.5496025530450515e-02  4.4386273258244907e-01 -7.5991134286672965e-02 -2.5632913572327245e-02  4.8568424257721143e-01 -7.6336829791386632e-02 -2.6072805427051347e-02  2.7871247050414494e-01 6.3188733541032355e-02 -3.7586193921366973e-02  2.7987370109460313e-01 7.5343165729364753e-02 -3.7819451107564322e-02  2.3955707761899037e-01 7.4444545236797804e-02 -3.7090457025047395e-02  2.3772168744744579e-01 6.2364863653401284e-02 -3.6765798974382181e-02  3.1988993912896052e-01 6.3557308907458518e-02 -3.7951312902028161e-02  3.2065508267243120e-01 7.5800939947216484e-02 -3.8100787075109055e-02  3.6124656031183633e-01 6.3735872559794848e-02 -3.81073