<?xml version="1.0"?>
<VTKFile type="UnstructuredGrid"  version="0.1"  >
<UnstructuredGrid>
<Piece  NumberOfPoints="2197" NumberOfCells="10368">
<Points>
<DataArray  type="Float64"  NumberOfComponents="3"  format="ascii">0 0 0  0.08333333333333333 0 0  0.1666666666666667 0 0  0.25 0 0  0.3333333333333333 0 0  0.4166666666666667 0 0  0.5 0 0  0.5833333333333334 0 0  0.6666666666666666 0 0  0.75 0 0  0.8333333333333334 0 0  0.9166666666666666 0 0  1 0 0  0 0.08333333333333333 0  0.08333333333333333 0.08333333333333333 0  0.1666666666666667 0.08333333333333333 0  0.25 0.08333333333333333 0  0.3333333333333333 0.08333333333333333 0  0.4166666666666667 0.08333333333333333 0  0.5 0.08333333333333333 0  0.5833333333333334 0.08333333333333333 0  0.6666666666666666 0.08333333333333333 0  0.75 0.08333333333333333 0  0.8333333333333334 0.08333333333333333 0  0.9166666666666666 0.08333333333333333 0  1 0.08333333333333333 0  0 0.1666666666666667 0  0.08333333333333333 0.1666666666666667 0  0.1666666666666667 0.1666666666666667 0  0.25 0.1666666666666667 0  0.3333333333333333 0.1666666666666667 0  0.4166666666666667 0.1666666666666667 0  0.5 0.1666666666666667 0  0.5833333333333334 0.1666666666666667 0  0.6666666666666666 0.1666666666666667 0  0.75 0.1666666666666667 0  0.8333333333333334 0.1666666666666667 0  0.9166666666666666 0.1666666666666667 0  1 0.1666666666666667 0  0 0.25 0  0.08333333333333333 0.25 0  0.1666666666666667 0.25 0  0.25 0.25 0  0.3333333333333333 0.25 0  0.4166666666666667 0.25 0  0.5 0.25 0  0.5833333333333334 0.25 0  0.6666666666666666 0.25 0  0.75 0.25 0  0.8333333333333334 0.25 0  0.9166666666666666 0.25 0  1 0.25 0  0 0.3333333333333333 0  0.08333333333333333 0.3333333333333333 0  0.1666666666666667 0.3333333333333333 0  0.25 0.3333333333333333 0  0.3333333333333333 0.3333333333333333 0  0.4166666666666667 0.3333333333333333 0  0.5 0.3333333333333333 0  0.5833333333333334 0.3333333333333333 0  0.6666666666666666 0.3333333333333333 0  0.75 0.3333333333333333 0  0.8333333333333334 0.3333333333333333 0  0.9166666666666666 0.3333333333333333 0  1 0.3333333333333333 0  0 0.4166666666666667 0  0.08333333333333333 0.4166666666666667 0  0.1666666666666667 0.4166666666666667 0  0.25 0.4166666666666667 0  0.3333333333333333 0.4166666666666667 0  0.4166666666666667 0.4166666666666667 0  0.5 0.4166666666666667 0  0.5833333333333334 0.4166666666666667 0  0.6666666666666666 0.4166666666666667 0  0.75 0.4166666666666667 0  0.8333333333333334 0.4166666666666667 0  0.9166666666666666 0.4166666666666667 0  1 0.4166666666666667 0  0 0.5 0  0.08333333333333333 0.5 0  0.1666666666666667 0.5 0  0.25 0.5 0  0.3333333333333333 0.5 0  0.4166666666666667 0.5 0  0.5 0.5 0  0.5833333333333334 0.5 0  0.6666666666666666 0.5 0  0.75 0.5 0  0.8333333333333334 0.5 0  0.9166666666666666 0.5 0  1 0.5 0  0 0.5833333333333334 0  0.08333333333333333 0.5833333333333334 0  0.1666666666666667 0.5833333333333334 0  0.25 0.5833333333333334 0  0.3333333333333333 0.5833333333333334 0  0.4166666666666667 0.5833333333333334 0  0.5 0.5833333333333334 0  0.5833333333333334 0.5833333333333334 0  0.6666666666666666 0.5833333333333334 0  0.75 0.5833333333333334 0  0.8333333333333334 0.5833333333333334 0  0.9166666666666666 0.5833333333333334 0  1 0.5833333333333334 0  0 0.6666666666666666 0  0.08333333333333333 0.6666666666666666 0  0.1666666666666667 0.6666666666666666 0  0.25 0.6666666666666666 0  0.3333333333333333 0.6666666666666666 0  0.4166666666666667 0.6666666666666666 0  0.5 0.6666666666666666 0  0.5833333333333334 0.6666666666666666 0  0.6666666666666666 0.6666666666666666 0  0.75 0.6666666666666666 0  0.8333333333333334 0.6666666666666666 0  0.9166666666666666 0.6666666666666666 0  1 0.6666666666666666 0  0 0.75 0  0.08333333333333333 0.75 0  0.1666666666666667 0.75 0  0.25 0.75 0  0.3333333333333333 0.75 0  0.4166666666666667 0.75 0  0.5 0.75 0  0.5833333333333334 0.75 0  0.6666666666666666 0.75 0  0.75 0.75 0  0.8333333333333334 0.75 0  0.9166666666666666 0.75 0  1 0.75 0  0 0.8333333333333334 0  0.08333333333333333 0.8333333333333334 0  0.1666666666666667 0.8333333333333334 0  0.25 0.8333333333333334 0  0.3333333333333333 0.8333333333333334 0  0.4166666666666667 0.8333333333333334 0  0.5 0.8333333333333334 0  0.5833333333333334 0.8333333333333334 0  0.6666666666666666 0.8333333333333334 0  0.75 0.8333333333333334 0  0.8333333333333334 0.8333333333333334 0  0.9166666666666666 0.8333333333333334 0  1 0.8333333333333334 0  0 0.9166666666666666 0  0.08333333333333333 0.9166666666666666 0  0.1666666666666667 0.9166666666666666 0  0.25 0.9166666666666666 0  0.3333333333333333 0.9166666666666666 0  0.4166666666666667 0.9166666666666666 0  0.5 0.9166666666666666 0  0.5833333333333334 0.9166666666666666 0  0.6666666666666666 0.9166666666666666 0  0.75 0.9166666666666666 0  0.8333333333333334 0.9166666666666666 0  0.9166666666666666 0.9166666666666666 0  1 0.9166666666666666 0  0 1 0  0.08333333333333333 1 0  0.1666666666666667 1 0  0.25 1 0  0.3333333333333333 1 0  0.4166666666666667 1 0  0.5 1 0  0.5833333333333334 1 0  0.6666666666666666 1 0  0.75 1 0  0.8333333333333334 1 0  0.9166666666666666 1 0  1 1 0  0 0 0.08333333333333333  0.08333333333333333 0 0.08333333333333333  0.1666666666666667 0 0.08333333333333333  0.25 0 0.08333333333333333  0.3333333333333333 0 0.08333333333333333  0.4166666666666667 0 0.08333333333333333  0.5 0 0.08333333333333333  0.5833333333333334 0 0.08333333333333333  0.6666666666666666 0 0.08333333333333333  0.75 0 0.08333333333333333  0.8333333333333334 0 0.08333333333333333  0.9166666666666666 0 0.08333333333333333  1 0 0.08333333333333333  0 0.08333333333333333 0.08333333333333333  0.08333333333333333 0.08333333333333333 0.08333333333333333  0.1666666666666667 0.08333333333333333 0.08333333333333333  0.25 0.08333333333333333 0.08333333333333333  0.3333333333333333 0.08333333333333333 0.08333333333333333  0.4166666666666667 0.08333333333333333 0.08333333333333333  0.5 0.08333333333333333 0.08333333333333333  0.5833333333333334 0.08333333333333333 0.08333333333333333  0.6666666666666666 0.08333333333333333 0.08333333333333333  0.75 0.08333333333333333 0.08333333333333333  0.8333333333333334 0.08333333333333333 0.08333333333333333  0.9166666666666666 0.08333333333333333 0.08333333333333333  1 0.08333333333333333 0.08333333333333333  0 0.1666666666666667 0.08333333333333333  0.08333333333333333 0.1666666666666667 0.08333333333333333  0.1666666666666667 0.1666666666666667 0.08333333333333333  0.25 0.1666666666666667 0.08333333333333333  0.3333333333333333 0.1666666666666667 0.08333333333333333  0.4166666666666667 0.1666666666666667 0.08333333333333333  0.5 0.1666666666666667 0.08333333333333333  0.5833333333333334 0.1666666666666667 0.08333333333333333  0.6666666666666666 0.1666666666666667 0.08333333333333333  0.75 0.1666666666666667 0.08333333333333333  0.8333333333333334 0.1666666666666667 0.08333333333333333  0.9166666666666666 0.1666666666666667 0.08333333333333333  1 0.1666666666666667 0.08333333333333333  0 0.25 0.08333333333333333  0.08333333333333333 0.25 0.08333333333333333  0.1666666666666667 0.25 0.08333333333333333  0.25 0.25 0.08333333333333333  0.3333333333333333 0.25 0.08333333333333333  0.4166666666666667 0.25 0.08333333333333333  0.5 0.25 0.08333333333333333  0.5833333333333334 0.25 0.08333333333333333  0.6666666666666666 0.25 0.08333333333333333  0.75 0.25 0.08333333333333333  0.8333333333333334 0.25 0.08333333333333333  0.9166666666666666 0.25 0.08333333333333333  1 0.25 0.08333333333333333  0 0.3333333333333333 0.08333333333333333  0.08333333333333333 0.3333333333333333 0.08333333333333333  0.1666666666666667 0.3333333333333333 0.08333333333333333  0.25 0.3333333333333333 0.08333333333333333  0.3333333333333333 0.3333333333333333 0.08333333333333333  0.4166666666666667 0.3333333333333333 0.08333333333333333  0.5 0.3333333333333333 0.08333333333333333  0.5833333333333334 0.3333333333333333 0.08333333333333333  0.6666666666666666 0.3333333333333333 0.08333333333333333  0.75 0.3333333333333333 0.08333333333333333  0.8333333333333334 0.3333333333333333 0.08333333333333333  0.9166666666666666 0.3333333333333333 0.08333333333333333  1 0.3333333333333333 0.08333333333333333  0 0.4166666666666667 0.08333333333333333  0.08333333333333333 0.4166666666666667 0.08333333333333333  0.1666666666666667 0.4166666666666667 0.08333333333333333  0.25 0.4166666666666667 0.08333333333333333  0.3333333333333333 0.4166666666666667 0.08333333333333333  0.4166666666666667 0.4166666666666667 0.08333333333333333  0.5 0.4166666666666667 0.08333333333333333  0.5833333333333334 0.4166666666666667 0.08333333333333333  0.6666666666666666 0.4166666666666667 0.08333333333333333  0.75 0.4166666666666667 0.08333333333333333  0.8333333333333334 0.4166666666666667 0.08333333333333333  0.9166666666666666 0.4166666666666667 0.08333333333333333  1 0.4166666666666667 0.08333333333333333  0 0.5 0.08333333333333333  0.08333333333333333 0.5 0.08333333333333333  0.1666666666666667 0.5 0.08333333333333333  0.25 0.5 0.08333333333333333  0.3333333333333333 0.5 0.08333333333333333  0.4166666666666667 0.5 0.08333333333333333  0.5 0.5 0.08333333333333333  0.5833333333333334 0.5 0.08333333333333333  0.6666666666666666 0.5 0.08333333333333333  0.75 0.5 0.08333333333333333  0.8333333333333334 0.5 0.08333333333333333  0.9166666666666666 0.5 0.08333333333333333  1 0.5 0.08333333333333333  0 0.5833333333333334 0.08333333333333333  0.08333333333333333 0.5833333333333334 0.08333333333333333  0.1666666666666667 0.5833333333333334 0.08333333333333333  0.25 0.5833333333333334 0.08333333333333333  0.3333333333333333 0.5833333333333334 0.08333333333333333  0.4166666666666667 0.5833333333333334 0.08333333333333333  0.5 0.5833333333333334 0.08333333333333333  0.5833333333333334 0.5833333333333334 0.08333333333333333  0.6666666666666666 0.5833333333333334 0.08333333333333333  0.75 0.5833333333333334 0.08333333333333333  0.8333333333333334 0.5833333333333334 0.083
[...]
<PointData  Vectors="f_11"> 
<DataArray  type="Float64"  Name="f_11"  NumberOfComponents="3" format="ascii">0.0000000000000000e+00 0.0000000000000000e+00 0.0000000000000000e+00  1.9530332566843306e-02 1.9500906352757655e-02 1.9500906352761256e-02  2.9124012878052486e-02 2.6648447819677172e-02 2.6648447819683549e-02  3.7848432872849558e-02 3.0886863995343950e-02 3.0886863995342465e-02  4.6941522604264450e-02 3.3506355786980510e-02 3.3506355786964905e-02  5.6648971615850537e-02 3.5142244494092555e-02 3.5142244494076581e-02  6.6996927900694461e-02 3.6152791941086775e-02 3.6152791941074201e-02  7.7932822541606217e-02 3.6770736246126846e-02 3.6770736246115703e-02  8.9373968745426080e-02 3.7156241921062517e-02 3.7156241921041035e-02  1.0123009129080865e-01 3.7423463104636137e-02 3.7423463104609915e-02  1.1340923264730432e-01 3.7657112032765977e-02 3.7657112032735827e-02  1.2581140091383894e-01 3.7918679318732426e-02 3.7918679318688454e-02  1.3832820822606678e-01 3.8237968972907689e-02 3.8237968972860324e-02  0.0000000000000000e+00 0.0000000000000000e+00 0.0000000000000000e+00  1.3395930931007610e-02 1.3272498887207943e-02 2.0096761390620211e-02  2.4171473926755626e-02 2.1379729043982432e-02 2.7453788318958425e-02  3.4385016511988241e-02 2.5935369108466229e-02 3.1365598670090637e-02  4.4574026844021591e-02 2.8525046185903315e-02 3.3801665717841621e-02  5.5047082615543030e-02 2.9987383181183051e-02 3.5329489756578097e-02  6.5919185498823848e-02 3.0782253760129333e-02 3.6270056393874768e-02  7.7201560912738915e-02 3.1189605443307566e-02 3.6840246175692884e-02  8.8857215664363193e-02 3.1389464963123628e-02 3.7192111685452361e-02  1.0082990339283182e-01 3.1502878713341856e-02 3.7434907222471073e-02  1.1305605631446891e-01 3.1616579354924679e-02 3.7650977517908135e-02  1.2546460700746390e-01 3.1797712108926637e-02 3.7903314087021404e-02  1.3797146078896846e-01 3.2109586622892219e-02 3.8218993058829927e-02  0.0000000000000000e+00 0.0000000000000000e+00 0.0000000000000000e+00  1.2210197162466742e-02 9.1451859206930289e-03 2.1065954236240247e-02  2.1721564921006430e-02 1.6198869265101251e-02 2.8590298418625610e-02  3.1797896357903928e-02 2.0602460866686153e-02 3.2399582897130470e-02  4.2362673680389554e-02 2.3123885550218888e-02 3.4582042205943291e-02  5.3304648253970396e-02 2.4477945183907598e-02 3.5880252578170409e-02  6.4593477488644732e-02 2.5141520749555522e-02 3.6641224066366759e-02  7.6203333755010025e-02 2.5417105968089819e-02 3.7075689675310192e-02  8.8095857542615827e-02 2.5496847098103233e-02 3.7325986177371137e-02  1.0022614877492417e-01 2.5505676158166454e-02 3.7492611710750537e-02  1.1254726715120074e-01 2.5530671178343525e-02 3.7650793876612021e-02  1.2500680343589862e-01 2.5645208828810814e-02 3.7856488293535495e-02  1.3753917698562337e-01 2.5949759739916308e-02 3.8124914948664122e-02  0.0000000000000000e+00 0.0000000000000000e+00 0.0000000000000000e+00  1.1831991206748872e-02 6.3298552506318717e-03 2.1607047645663572e-02  2.0549906160528961e-02 1.1577177277254056e-02 2.9585909828911482e-02  3.0133403782895796e-02 1.5219993453850361e-02 3.3459332950161215e-02  4.0631943203897625e-02 1.7433324288719493e-02 3.5492570542145656e-02  5.1748979652554178e-02 1.8634712559346640e-02 3.6580677468272156e-02  6.3295038155731509e-02 1.9201550765787251e-02 3.7141355388235063e-02  7.5157254856824535e-02 1.9406301812881714e-02 3.7407952261969427e-02  8.7259202496664579e-02 1.9429893998624062e-02 3.7524659680438548e-02  9.9544453192339608e-02 1.9390188533942008e-02 3.7586206700093217e-02  1.1196823117757233e-01 1.9369102040056877e-02 3.7659419748237180e-02  1.2448770699437810e-01 1.9440261495957054e-02 3.7789986936171721e-02  1.3705572057930254e-01 1.9718750498609394e-02 3.7979803347055009e-02  0.0000000000000000e+00 0.0000000000000000e+00 0.0000000000000000e+00  1.1698837840434264e-02 4.0529874515816489e-03 2.1966725221388716e-02  1.9981634177967018e-02 7.5042009356238726e-03 3.0271459659171458e-02  2.9153763122802420e-02 1.0050217750506974e-02 3.4266830847784313e-02  3.9458342016040676e-02 1.1681521030967222e-02 3.6248865242492524e-02  5.0581007845843372e-02 1.2597217038092677e-02 3.7202493308501672e-02  6.2246160218845339e-02 1.3034294148036286e-02 3.7608044180177561e-02  7.4266284808466004e-02 1.3188274254863117e-02 3.7730218659800363e-02  8.6518894843703509e-02 1.3197927712301416e-02 3.7724114228678267e-02  9.8925009968295688e-02 1.3156181588338568e-02 3.7684258688632809e-02  1.1143289275615678e-01 1.3128526136127232e-02 3.7671816382297336e-02  1.2400365220205078e-01 1.3175609062441132e-02 3.7724048162374825e-02  1.3660793243827002e-01 1.3395697577003785e-02 3.7833073856180621e-02  0.0000000000000000e+00 0.0000000000000000e+00 0.0000000000000000e+00  1.1647766727987258e-02 2.0328229140773191e-03 2.2176994096221890e-02  1.9709410319283267e-02 3.7747151651850702e-03 3.0670441380571237e-02  2.8636557764337676e-02 5.0965576966962205e-03 3.4760343397527711e-02  3.8784966842984228e-02 5.9739410989993512e-03 3.6734456080671822e-02  4.9865059777509699e-02 6.4832452557222588e-03 3.7618054331353186e-02  6.1569567079823445e-02 6.7354173410176304e-03 3.7930036112690448e-02  7.3668641829390993e-02 6.8312805644741700e-03 3.7958361416416085e-02  8.6007189275650361e-02 6.8461682198961496e-03 3.7868455140619775e-02  9.8486924900087952e-02 6.8318114693105367e-03 3.7756855468839529e-02  1.1104791822470474e-01 6.8250116755507835e-03 3.7682022393505807e-02  1.2365240199893300e-01 6.8595219567297366e-03 3.7676205841016629e-02  1.3628425188537949e-01 6.9901826933810880e-03 3.7726175594120920e-02  0.0000000000000000e+00 0.0000000000000000e+00 0.0000000000000000e+00  1.1622840893543216e-02 1.2630460455025601e-04 2.2249985795923296e-02  1.9613454348907062e-02 2.1036155901737574e-04 3.0806973279577200e-02  2.8461394193485697e-02 2.7001521712974541e-04 3.4933026893838225e-02  3.8552131341483643e-02 3.1559821797610434e-04 3.6908967062701956e-02  4.9608675942996804e-02 3.5135975026780246e-04 3.7770434842063855e-02  6.1318318883075568e-02 3.8067174116413258e-04 3.8049868237860773e-02  7.3438931511024333e-02 4.0689026394827288e-04 3.8044258797620203e-02  8.5804135854049030e-02 4.3246741940583967e-04 3.7923350122826695e-02  9.8308060423052970e-02 4.5880703630992239e-04 3.7784785421260098e-02  1.1088699085651876e-01 4.8634160253863427e-04 3.7686172487660909e-02  1.2350327192037734e-01 5.1353007723754459e-04 3.7657931131999348e-02  1.3614693522611976e-01 5.3697967612441984e-04 3.7685335920255532e-02  0.0000000000000000e+00 0.0000000000000000e+00 0.0000000000000000e+00  1.1606912012501920e-02 -1.7665609663796934e-03 2.2190823534087842e-02  1.9662014247280497e-02 -3.3384490374101334e-03 3.0690877528155986e-02  2.8593002324404503e-02 -4.5431814789274345e-03 3.4788461136497847e-02  3.8737405565932456e-02 -5.3343349372455802e-03 3.6764412133626502e-02  4.9808828997540279e-02 -5.7772119060566698e-03 3.7644030981754791e-02  6.1505457472752732e-02 -5.9742342629184953e-03 3.7949853097949404e-02  7.3599651831791291e-02 -6.0193537180843661e-03 3.7972079176150066e-02  8.5936135522830540e-02 -5.9835911229039179e-03 3.7876968427849315e-02  9.8415544075761849e-02 -5.9165088012848354e-03 3.7761182172783965e-02  1.1097673931553748e-01 -5.8543345568097087e-03 3.7682796836679085e-02  1.2358168913720984e-01 -5.8334601449059444e-03 3.7673310787281367e-02  1.3621851873259469e-01 -5.9153850538435160e-03 3.7719846781056054e-02  0.0000000000000000e+00 0.0000000000000000e+00 0.0000000000000000e+00  1.1608391938073632e-02 -3.7421992042780561e-03 2.1999599569680367e-02  1.9891735581955575e-02 -7.0174300498151970e-03 3.0319937329592660e-02  2.9070994736749237e-02 -9.4560347562604365e-03 3.4330300652960624e-02  3.9361323785419525e-02 -1.1019044460245859e-02 3.6311691868029322e-02  5.0464139555896639e-02 -1.1884273579160935e-02 3.7254041267780709e-02  6.2114461568899798e-02 -1.2275765012942422e-02 3.7645743707817668e-02  7.4126811208027610e-02 -1.2382925083339229e-02 3.7755337200879396e-02  8.6376923152091806e-02 -1.2342554963321234e-02 3.7739055893007009e-02  9.8783377406963219e-02 -1.2247445826287055e-02 3.7691358113665072e-02  1.1129235857104916e-01 -1.2163442513080184e-02 3.7672584450470649e-02  1.2386435100105726e-01 -1.2152454923718602e-02 3.7718551912158081e-02  1.3647742625156925e-01 -1.2318053385029951e-02 3.7821568822280750e-02  0.0000000000000000e+00 0.0000000000000000e+00 0.0000000000000000e+00  1.1686468650534392e-02 -5.9315712582669357e-03 2.1672467939760163e-02  2.0440809302558535e-02 -1.0990309711959698e-02 2.9684593468543879e-02  3.0016513891663321e-02 -1.4558823714213345e-02 3.3572025788173157e-02  4.0476235181134405e-02 -1.6743811842088580e-02 3.5590926566996375e-02  5.1561176374772040e-02 -1.7921124992510782e-02 3.6654084019814050e-02  6.3090035235559977e-02 -1.8453923742377441e-02 3.7190889655587860e-02  7.4946059947970961e-02 -1.8614210856336376e-02 3.7438498073785575e-02  8.7047726605425729e-02 -1.8586177913320762e-02 3.7541282484063743e-02  9.9335104415769745e-02 -1.8490734289537885e-02 3.7592861330665799e-02  1.1176142179610703e-01 -1.8411509030334693e-02 3.7658526242869098e-02  1.2428324388906986e-01 -1.8421395093923189e-02 3.7782128931147914e-02  1.3686141476136357e-01 -1.8635620837443408e-02 3.7964989194369657e-02  0.0000000000000000e+00 0.0000000000000000e+00 0.0000000000000000e+00  1.2078021555109564e-02 -8.5788225386894037e-03 2.1207206675971403e-02  2.1639566406149113e-02 -1.5440624215401624e-02 2.8788014633356233e-02  3.1629022455609099e-02 -1.9868109575333581e-02 3.2576941149898883e-02  4.2122069198866074e-02 -2.2430098736880243e-02 3.4708879921010148e-02  5.3032102791290434e-02 -2.3785396212226376e-02 3.5959988291034181e-02  6.4312163161843530e-02 -2.4417422699597201e-02 3.6687282793675127e-02  7.5922712225538716e-02 -2.4643593553381960e-02 3.7100025703899919e-02  8.7818832940618541e-02 -2.4665988794011103e-02 3.7336727727762871e-02  9.9952937292352217e-02 -2.4614647982020000e-02 3.7494540832093540e-02  1.1227734966788061e-01 -2.4578898788696339e-02 3.7646167457095557e-02  1.2474004270797509e-01 -2.4630079767623051e-02 3.7846065589040800e-02  1.3728060932998448e-01 -2.4859094772770544e-02 3.8108800599838899e-02  0.0000000000000000e+00 0.0000000000000000e+00 0.0000000000000000e+00  1.3618019159173543e-02 -1.2241948799397381e-02 2.0650819435908633e-02  2.4076249357878204e-02 -2.0486521341460274e-02 2.7739130084862618e-02  3.4068830777802941e-02 -2.5230916084016140e-02 3.1560869080252560e-02  4.4205997540743149e-02 -2.7887976729427423e-02 3.3900628749092825e-02  5.4681558726906609e-02 -2.9335370828066209e-02 3.5373334518524729e-02  6.5564919880879327e-02 -3.0080541335498791e-02 3.6287253431927749e-02  7.6856983306964152e-02 -3.0426855657442051e-02 3.6844832461602625e-02  8.8519627051953778e-02 -3.0563361397671060e-02 3.7190449267423424e-02  1.0049694751542705e-01 -3.0613649958357525e-02 3.7429547204949135e-02  1.1272596440810875e-01 -3.0664346106811298e-02 3.7642206460769823e-02  1.2513695271950326e-01 -3.0780753559064660e-02 3.7890681580955682e-02  1.3764702365374989e-01 -3.1014271504238751e-02 3.8204025289798015e-02  0.0000000000000000e+00 0.0000000000000000e+00 0.0000000000000000e+00  1.8172286093644716e-02 -1.8485733202754484e-02 1.9791045610112103e-02  2.8106318184095504e-02 -2.6033409164844267e-02 2.7130616097969087e-02  3.7069593816660661e-02 -3.0295013022975902e-02 3.1089669801342281e-02  4.6340613080053022e-02 -3.2885666927148692e-02 3.3559287702857099e-02  5.6148556899224357e-02 -3.4471178312755056e-02 3.5140853133199861e-02  6.6547502794363542e-02 -3.5424072681284030e-02 3.6137173109723503e-02  7.7509336278363594e-02 -3.5983100657339610e-02 3.6753818252547012e-02  8.8964274489391718e-02 -3.6310207886306615e-02 3.7141140403496926e-02  1.0082844127680422e-01 -3.6519639294627787e-02 3.7409903542205282e-02  1.1301451911354890e-01 -3.6695074829082852e-02 3.7643336647023448e-02  1.2542538391744176e-01 -3.6896064968590520e-02 3.7903747177632757e-02  1.3793812037062989e-01 -3.7149995607944200e-02 3.8224778628711452e-02  0.0000000000000000e+00 0.0000000000000000e+00 0.0000000000000000e+00  1.3395930931007749e-02 2.0096761390619538e-02 1.3272498887211564e-02  2.4171473926757382e-02 2.7453788318959550e-02 2.1379729043988292e-02  3.4385016511992522e-02 3.1365598670093267e-02 2.5935369108467162e-02  4.4574026844026914e-02 3.3801665717853327e-02 2.8525046185890787e-02  5.5047082615547936e-02 3.5329489756598054e-02 2.9987383181168600e-02  6.5919185498823737e-02 3.6270056393889881e-02 3.0782253760116240e-02  7.7201560912743702e-02 3.6840246175709523e-02 3.1189605443294525e-02  8.8857215664371117e-02 3.7192111685474261e-02 3.1389464963104630e-02  1.0082990339283657e-01 3.7434907222503797e-02 3.1502878713316203e-02  1.1305605631447373e-01 3.7650977517947833e-02 3.1616579354894703e-02  1.2546460700746789e-01 3.7903314087066861e-02 3.1797712108883922e-02  1.3797146078897199e-01 3.8218993058881982e-02 3.2109586622842273e-02  0.0000000000000000e+00 0.0000000000000000e+00 0.0000000000000000e+00  7.1742092359890035e-03 1.3408362160854058e-02 1.3408362160854748e-02  1.9318346487476844e-02 2.1366179876646567e-02 2.1366179876647930e-02  3.1162651756591497e-02 2.5876082620755893e-02 2.5876082620754887e-02  4.2420981014967003e-02 2.8470113607375634e-02 2.8470113607368130e-02  5.3604073690510547e-02 2.9941841614901345e-02 2.9941841614884127e-02  6.4954459785694529e-02 3.0746338296753190e-02 3.0746338296737858e-02  7.6550780648259112e-02 3.1163112376421002e-02 3.1163112376403544e-02  8.8398992814933880e-02 3.1371936399060593e-02 3.1371936399036418e-02  1.0047407546798882e-01 3.1493705017385749e-02 3.1493705017356016e-02  1.1273817142577518e-01 3.1615388720449313e-02 3.1615388720411003e-02  1.2514512503228906e-01 3.1804024693917354e-02 3.1804024693871349e-02  1.3762902769801416e-01 3.2108063470966543e-02 3.2108063470915722e-02  0.0000000000000000e+00 0.0000000000000000e+00 0.0000000000000000e+00  5.8032543477796097e-03 8.8315063934250558e-03 1.4111991099430388e-02  1.6715314905201690e-02 1.5917242667011399e-02 2.2302273523616554e-02  2.8542702078162677e-02 2.0281206800793140e-02 2.6698714310689441e-02  4.0257807738569990e-02 2.2834875124330575e-02 2.9106105322218835e-02  5.1937397192494461e-02 2.4246112094157203e-02 3.0394938901108330e-02  6.3706163895599244e-02 2.4969652464400419e-02 3.1050321449074370e-02  7.5621768473856987e-02 2.5299077522403856e-02 3.1353998822228828e-02  8.7696479302361963e-02 2.5424292521047286e-02 3.1479716699777310e-02  9.9920334541510572e-02 2.5470953313338558e-02 3.1541171774895453e-02  1.1227416258713381e-01 2.5527923683901357e-02 3.1618742765946367e-02  1.2473222583625010e-01 2.5668458816185184e-02 3.1771956224060260e-02  1.3724859088912003e-01 2.5969010486444871e-02 3.2036410685332604e-02  0.0000000000000000e+00 0.0000000000000000e+00 0.0000000000000000e+00  5.2359960864138584e-03 6.0125931451554095e-03 1.4625644517046357e-02  1.5416623504164706e-02 1.1226610658718566e-02 2.3208082609714034e-02  2.6863693927940926e-02 1.4829418721382152e-02 2.7667774238148691e-02  3.8582450244363867e-02 1.7067607792310400e-02 2.9941538344939969e-02  5.0464408082578044e-02 1.8330137629812188e-02 3.1042234554572480e-02  6.2493902468146199e-02 1.8969144811516927e-02 3.1514073297462281e-02  7.4654631648335176e-02 1.9243115838630823e-02 3.1662370991161773e-02  8.6928445760691836e-02 1.9327497649035817e-02 3.1664854062230650e-02  9.9298319401531582e-02 1.9339566521349588e-02 3.1630899046226166e-02  1.1175017836900258e-01 1.9362724557684508e-02 3.1633795937233276e-02  1.2427080335453823e-01 1.9470210408071235e-02 3.1725252897667020e-02  1.3683505171059723e-01 1.9750793207087482e-02 3.1934159676496932e-02  0.0000000000000000e+00 0.0000000000000000e+00 0.0000000000000000e+00  4.9702543047101949e-03 3.8090242122976970e-03 1.4986615510968799e-02  1.4730162917179976e-02 7.2226199446664488e-03 2.3873746390748653e-02  2.5849763477187614e-02 9.7299858237889000e-03 2.8437754832125905e-02  3.7442310256862857e-02 1.1371814680699418e-02 3.0660842328241740e-02  4.9362763152978176e-02 1.2330686876061788e-02 3.1634414212014308e-02  6.1520114848630132e-02 1.2825382811100622e-02 3.1959484980842445e-02  7.3835375915278709e-02 1.3038336409911755e-02 3.1970674129556946e-02  8.6252243914388252e-02 1.3101906199455057e-02 3.1856894927008494e-02  9.8735917495447398e-02 1.3107290371678565e-02 3.1728295094333510e-02  1.1126840922611264e-01 1.3120504190223196e-02 3.1654070766892507e-02  1.2384312363441695e-01 1.3201700592725447e-02 3.1680743774900058e-02  1.3645410513917877e-01 1.3427341291309238e-02 3.1834794684228784e-02  0.0000000000000000e+00 0.0000000000000000e+00 0.0000000000000000e+00  4.8419393350691061e-03 1.8772621186444319e-03 1.5198223087582853e-02  1.4380390065191819e-02 3.6111992839035494e-03 2.4270235558711203e-02  2.5301529664744055e-02 4.9110267466615986e-03 2.8917821160114113e-02  3.6782324759284842e-02 5.7940127362830331e-03 3.1129089312041464e-02  4.8686387950286736e-02 6.3262816784936757e-03 3.2034155103402830e-02  6.0892773133314891e-02 6.6103371446304422e-03 3.2269232599554783e-02  7.3286997913850752e-02 6.7400193786013975e-03 3.2190540941938607e-02  8.5785849295314784e-02 6.7866616336810289e-03 3.1996980048047990e-02  9.8338956779713257e-02 6.8005446424908881e-03 3.1801123167891437e-02  1.1092250319003720e-01 6.8184400942824415e-03 3.1670603205330876e-02  1.2353286592841616e-01 6.8740654828397972e-03 3.1649412087367608e-02  1.3617794579379505e-01 7.0104966443246992e-03 3.1763895264006289e-02  0.0000000000000000e+00 0.0000000000000000e+00 0.0000000000000000e+00  4.7924609989798911e-03 5.8751221113814257e-05 1.5269990082780318e-02  1.4256666866771310e-02 1.7861154236465610e-04 2.4404311496595665e-02  2.5112267650238065e-02 2.4273474963062728e-04 2.9084065535170924e-02  3.6550922408612470e-02 2.9533749829314010e-04 3.1295223400550250e-02  4.8442184964970957e-02 3.3580260088083734e-04 3.2178538009648344e-02  6.0658670407998230e-02 3.6859072472282669e-04 3.2382629369758886e-02  7.3075414614968873e-02 3.9774575372454168e-04 3.2271949336313797e-02  8.5599998481179065e-02 4.2587354836036938e-04 3.2049405385551073e-02  9.8176002175719229e-02 4.5432628723220098e-04 3.1828710354138333e-02  1.1077682401151399e-01 4.8350191612096506e-04 3.1677062503936967e-02  1.2339960294484414e-01 5.1267215157660472e-04 3.1637634167348168e-02  1.3605832355144887e-01 5.3980888244739133e-04 3.1737165640921106e-02  0.0000000000000000e+00 0.0000000000000000e+00 0.0000000000000000e+00  4.8027410116489779e-03 -1.7536542897725036e-03 1.5206078764004516e-02  1.4327978003373310e-02 -3.2422320934400134e-03 2.4282153560444764e-02  2.5250271625194987e-02 -4.4140523270389011e-03 2.8934853962110398e-02  3.6729154975645321e-02 -5.1962245839056566e-03 3.1147324726300656e-02  4.8628398424515919e-02 -5.6520042747422077e-03 3.2049680845086442e-02  6.0829848900104226e-02 -5.8732243896974521e-03 3.2280884109323636e-02  7.3220721211313011e-02 -5.9457814586431909e-03 3.2198596156572029e-02  8.5718047649596549e-02 -5.9364463892520088e-03 3.2002083546235592e-02  9.8270892010749664e-02 -5.8933443117106452e-03 3.1803816372622355e-02  1.1085458134264986e-01 -5.8526843355011767e-03 3.1671091202864952e-02  1.2346518660330094e-01 -5.8494307915255839e-03 3.1647503131401265e-02  1.3611397381942242e-01 -5.9307269418785429e-03 3.1759983611900099e-02  0.0000000000000000e+00 0.0000000000000000e+00 0.0000000000000000e+00  4.8790371598188302e-03 -3.6667441847471499e-03 1.5003880456920610e-02  1.4625528426817897e-02 -6.8141309947329842e-03 2.3904246034435361e-02  2.5749852609382774e-02 -9.1974216533580715e-03 2.8477581899054742e-02  3.7335493403215896e-02 -1.0754259469629650e-02 3.0699116472224900e-02  4.9244635948669895e-02 -1.1650039227769532e-02 3.1664848138879438e-02  6.1392386427847626e-02 -1.2089304737065076e-02 3.1981366832616119e-02  7.3702077353957493e-02 -1.2247941365442053e-02 3.1985294849923789e-02  8.6116932713640473e-02 -1.2255923566375901e-02 3.1865801722543823e-02  9.8600738486022896e-02 -1.2203907237668680e-02 3.17326757390