<?xml version="1.0"?>
<VTKFile type="UnstructuredGrid"  version="0.1"  >
<UnstructuredGrid>
<Piece  NumberOfPoints="2197" NumberOfCells="10368">
<Points>
<DataArray  type="Float64"  NumberOfComponents="3"  format="ascii">0 0 0  0.08333333333333333 0 0  0.1666666666666667 0 0  0.25 0 0  0.3333333333333333 0 0  0.4166666666666667 0 0  0.5 0 0  0.5833333333333334 0 0  0.6666666666666666 0 0  0.75 0 0  0.8333333333333334 0 0  0.9166666666666666 0 0  1 0 0  0 0.08333333333333333 0  0.08333333333333333 0.08333333333333333 0  0.1666666666666667 0.08333333333333333 0  0.25 0.08333333333333333 0  0.3333333333333333 0.08333333333333333 0  0.4166666666666667 0.08333333333333333 0  0.5 0.08333333333333333 0  0.5833333333333334 0.08333333333333333 0  0.6666666666666666 0.08333333333333333 0  0.75 0.08333333333333333 0  0.8333333333333334 0.08333333333333333 0  0.9166666666666666 0.08333333333333333 0  1 0.08333333333333333 0  0 0.1666666666666667 0  0.08333333333333333 0.1666666666666667 0  0.1666666666666667 0.1666666666666667 0  0.25 0.1666666666666667 0  0.3333333333333333 0.1666666666666667 0  0.4166666666666667 0.1666666666666667 0  0.5 0.1666666666666667 0  0.5833333333333334 0.1666666666666667 0  0.6666666666666666 0.1666666666666667 0  0.75 0.1666666666666667 0  0.8333333333333334 0.1666666666666667 0  0.9166666666666666 0.1666666666666667 0  1 0.1666666666666667 0  0 0.25 0  0.08333333333333333 0.25 0  0.1666666666666667 0.25 0  0.25 0.25 0  0.3333333333333333 0.25 0  0.4166666666666667 0.25 0  0.5 0.25 0  0.5833333333333334 0.25 0  0.6666666666666666 0.25 0  0.75 0.25 0  0.8333333333333334 0.25 0  0.9166666666666666 0.25 0  1 0.25 0  0 0.3333333333333333 0  0.08333333333333333 0.3333333333333333 0  0.1666666666666667 0.3333333333333333 0  0.25 0.3333333333333333 0  0.3333333333333333 0.3333333333333333 0  0.4166666666666667 0.3333333333333333 0  0.5 0.3333333333333333 0  0.5833333333333334 0.3333333333333333 0  0.6666666666666666 0.3333333333333333 0  0.75 0.3333333333333333 0  0.8333333333333334 0.3333333333333333 0  0.9166666666666666 0.3333333333333333 0  1 0.3333333333333333 0  0 0.4166666666666667 0  0.08333333333333333 0.4166666666666667 0  0.1666666666666667 0.4166666666666667 0  0.25 0.4166666666666667 0  0.3333333333333333 0.4166666666666667 0  0.4166666666666667 0.4166666666666667 0  0.5 0.4166666666666667 0  0.5833333333333334 0.4166666666666667 0  0.6666666666666666 0.4166666666666667 0  0.75 0.4166666666666667 0  0.8333333333333334 0.4166666666666667 0  0.9166666666666666 0.4166666666666667 0  1 0.4166666666666667 0  0 0.5 0  0.08333333333333333 0.5 0  0.1666666666666667 0.5 0  0.25 0.5 0  0.3333333333333333 0.5 0  0.4166666666666667 0.5 0  0.5 0.5 0  0.5833333333333334 0.5 0  0.6666666666666666 0.5 0  0.75 0.5 0  0.8333333333333334 0.5 0  0.9166666666666666 0.5 0  1 0.5 0  0 0.5833333333333334 0  0.08333333333333333 0.5833333333333334 0  0.1666666666666667 0.5833333333333334 0  0.25 0.5833333333333334 0  0.3333333333333333 0.5833333333333334 0  0.4166666666666667 0.5833333333333334 0  0.5 0.5833333333333334 0  0.5833333333333334 0.5833333333333334 0  0.6666666666666666 0.5833333333333334 0  0.75 0.5833333333333334 0  0.8333333333333334 0.5833333333333334 0  0.9166666666666666 0.5833333333333334 0  1 0.5833333333333334 0  0 0.6666666666666666 0  0.08333333333333333 0.6666666666666666 0  0.1666666666666667 0.6666666666666666 0  0.25 0.6666666666666666 0  0.3333333333333333 0.6666666666666666 0  0.4166666666666667 0.6666666666666666 0  0.5 0.6666666666666666 0  0.5833333333333334 0.6666666666666666 0  0.6666666666666666 0.6666666666666666 0  0.75 0.6666666666666666 0  0.8333333333333334 0.6666666666666666 0  0.9166666666666666 0.6666666666666666 0  1 0.6666666666666666 0  0 0.75 0  0.08333333333333333 0.75 0  0.1666666666666667 0.75 0  0.25 0.75 0  0.3333333333333333 0.75 0  0.4166666666666667 0.75 0  0.5 0.75 0  0.5833333333333334 0.75 0  0.6666666666666666 0.75 0  0.75 0.75 0  0.8333333333333334 0.75 0  0.9166666666666666 0.75 0  1 0.75 0  0 0.8333333333333334 0  0.08333333333333333 0.8333333333333334 0  0.1666666666666667 0.8333333333333334 0  0.25 0.8333333333333334 0  0.3333333333333333 0.8333333333333334 0  0.4166666666666667 0.8333333333333334 0  0.5 0.8333333333333334 0  0.5833333333333334 0.8333333333333334 0  0.6666666666666666 0.8333333333333334 0  0.75 0.8333333333333334 0  0.8333333333333334 0.8333333333333334 0  0.9166666666666666 0.8333333333333334 0  1 0.8333333333333334 0  0 0.9166666666666666 0  0.08333333333333333 0.9166666666666666 0  0.1666666666666667 0.9166666666666666 0  0.25 0.9166666666666666 0  0.3333333333333333 0.9166666666666666 0  0.4166666666666667 0.9166666666666666 0  0.5 0.9166666666666666 0  0.5833333333333334 0.9166666666666666 0  0.6666666666666666 0.9166666666666666 0  0.75 0.9166666666666666 0  0.8333333333333334 0.9166666666666666 0  0.9166666666666666 0.9166666666666666 0  1 0.9166666666666666 0  0 1 0  0.08333333333333333 1 0  0.1666666666666667 1 0  0.25 1 0  0.3333333333333333 1 0  0.4166666666666667 1 0  0.5 1 0  0.5833333333333334 1 0  0.6666666666666666 1 0  0.75 1 0  0.8333333333333334 1 0  0.9166666666666666 1 0  1 1 0  0 0 0.08333333333333333  0.08333333333333333 0 0.08333333333333333  0.1666666666666667 0 0.08333333333333333  0.25 0 0.08333333333333333  0.3333333333333333 0 0.08333333333333333  0.4166666666666667 0 0.08333333333333333  0.5 0 0.08333333333333333  0.5833333333333334 0 0.08333333333333333  0.6666666666666666 0 0.08333333333333333  0.75 0 0.08333333333333333  0.8333333333333334 0 0.08333333333333333  0.9166666666666666 0 0.08333333333333333  1 0 0.08333333333333333  0 0.08333333333333333 0.08333333333333333  0.08333333333333333 0.08333333333333333 0.08333333333333333  0.1666666666666667 0.08333333333333333 0.08333333333333333  0.25 0.08333333333333333 0.08333333333333333  0.3333333333333333 0.08333333333333333 0.08333333333333333  0.4166666666666667 0.08333333333333333 0.08333333333333333  0.5 0.08333333333333333 0.08333333333333333  0.5833333333333334 0.08333333333333333 0.08333333333333333  0.6666666666666666 0.08333333333333333 0.08333333333333333  0.75 0.08333333333333333 0.08333333333333333  0.8333333333333334 0.08333333333333333 0.08333333333333333  0.9166666666666666 0.08333333333333333 0.08333333333333333  1 0.08333333333333333 0.08333333333333333  0 0.1666666666666667 0.08333333333333333  0.08333333333333333 0.1666666666666667 0.08333333333333333  0.1666666666666667 0.1666666666666667 0.08333333333333333  0.25 0.1666666666666667 0.08333333333333333  0.3333333333333333 0.1666666666666667 0.08333333333333333  0.4166666666666667 0.1666666666666667 0.08333333333333333  0.5 0.1666666666666667 0.08333333333333333  0.5833333333333334 0.1666666666666667 0.08333333333333333  0.6666666666666666 0.1666666666666667 0.08333333333333333  0.75 0.1666666666666667 0.08333333333333333  0.8333333333333334 0.1666666666666667 0.08333333333333333  0.9166666666666666 0.1666666666666667 0.08333333333333333  1 0.1666666666666667 0.08333333333333333  0 0.25 0.08333333333333333  0.08333333333333333 0.25 0.08333333333333333  0.1666666666666667 0.25 0.08333333333333333  0.25 0.25 0.08333333333333333  0.3333333333333333 0.25 0.08333333333333333  0.4166666666666667 0.25 0.08333333333333333  0.5 0.25 0.08333333333333333  0.5833333333333334 0.25 0.08333333333333333  0.6666666666666666 0.25 0.08333333333333333  0.75 0.25 0.08333333333333333  0.8333333333333334 0.25 0.08333333333333333  0.9166666666666666 0.25 0.08333333333333333  1 0.25 0.08333333333333333  0 0.3333333333333333 0.08333333333333333  0.08333333333333333 0.3333333333333333 0.08333333333333333  0.1666666666666667 0.3333333333333333 0.08333333333333333  0.25 0.3333333333333333 0.08333333333333333  0.3333333333333333 0.3333333333333333 0.08333333333333333  0.4166666666666667 0.3333333333333333 0.08333333333333333  0.5 0.3333333333333333 0.08333333333333333  0.5833333333333334 0.3333333333333333 0.08333333333333333  0.6666666666666666 0.3333333333333333 0.08333333333333333  0.75 0.3333333333333333 0.08333333333333333  0.8333333333333334 0.3333333333333333 0.08333333333333333  0.9166666666666666 0.3333333333333333 0.08333333333333333  1 0.3333333333333333 0.08333333333333333  0 0.4166666666666667 0.08333333333333333  0.08333333333333333 0.4166666666666667 0.08333333333333333  0.1666666666666667 0.4166666666666667 0.08333333333333333  0.25 0.4166666666666667 0.08333333333333333  0.3333333333333333 0.4166666666666667 0.08333333333333333  0.4166666666666667 0.4166666666666667 0.08333333333333333  0.5 0.4166666666666667 0.08333333333333333  0.5833333333333334 0.4166666666666667 0.08333333333333333  0.6666666666666666 0.4166666666666667 0.08333333333333333  0.75 0.4166666666666667 0.08333333333333333  0.8333333333333334 0.4166666666666667 0.08333333333333333  0.9166666666666666 0.4166666666666667 0.08333333333333333  1 0.4166666666666667 0.08333333333333333  0 0.5 0.08333333333333333  0.08333333333333333 0.5 0.08333333333333333  0.1666666666666667 0.5 0.08333333333333333  0.25 0.5 0.08333333333333333  0.3333333333333333 0.5 0.08333333333333333  0.4166666666666667 0.5 0.08333333333333333  0.5 0.5 0.08333333333333333  0.5833333333333334 0.5 0.08333333333333333  0.6666666666666666 0.5 0.08333333333333333  0.75 0.5 0.08333333333333333  0.8333333333333334 0.5 0.08333333333333333  0.9166666666666666 0.5 0.08333333333333333  1 0.5 0.08333333333333333  0 0.5833333333333334 0.08333333333333333  0.08333333333333333 0.5833333333333334 0.08333333333333333  0.1666666666666667 0.5833333333333334 0.08333333333333333  0.25 0.5833333333333334 0.08333333333333333  0.3333333333333333 0.5833333333333334 0.08333333333333333  0.4166666666666667 0.5833333333333334 0.08333333333333333  0.5 0.5833333333333334 0.08333333333333333  0.5833333333333334 0.5833333333333334 0.08333333333333333  0.6666666666666666 0.5833333333333334 0.08333333333333333  0.75 0.5833333333333334 0.08333333333333333  0.8333333333333334 0.5833333333333334 0.083
[...]
<PointData  Vectors="f_11"> 
<DataArray  type="Float64"  Name="f_11"  NumberOfComponents="3" format="ascii">0.0000000000000000e+00 0.0000000000000000e+00 0.0000000000000000e+00  1.9530332566850200e-02 1.9500906352765475e-02 1.9500906352768618e-02  2.9124012878062457e-02 2.6648447819689541e-02 2.6648447819691588e-02  3.7848432872861125e-02 3.0886863995358203e-02 3.0886863995350348e-02  4.6941522604277759e-02 3.3506355786995928e-02 3.3506355786971469e-02  5.6648971615866031e-02 3.5142244494106967e-02 3.5142244494081813e-02  6.6996927900712669e-02 3.6152791941100972e-02 3.6152791941075652e-02  7.7932822541626603e-02 3.6770736246140086e-02 3.6770736246112393e-02  8.9373968745450227e-02 3.7156241921073703e-02 3.7156241921034019e-02  1.0123009129083603e-01 3.7423463104643583e-02 3.7423463104602192e-02  1.1340923264733530e-01 3.7657112032771257e-02 3.7657112032724510e-02  1.2581140091387200e-01 3.7918679318736659e-02 3.7918679318673612e-02  1.3832820822609984e-01 3.8237968972907904e-02 3.8237968972843636e-02  0.0000000000000000e+00 0.0000000000000000e+00 0.0000000000000000e+00  1.3395930931011791e-02 1.3272498887213751e-02 2.0096761390627157e-02  2.4171473926762915e-02 2.1379729043993188e-02 2.7453788318967453e-02  3.4385016511998483e-02 2.5935369108479440e-02 3.1365598670099359e-02  4.4574026844034338e-02 2.8525046185916936e-02 3.3801665717848671e-02  5.5047082615558317e-02 2.9987383181196252e-02 3.5329489756582413e-02  6.5919185498842334e-02 3.0782253760142424e-02 3.6270056393877141e-02  7.7201560912761411e-02 3.1189605443319422e-02 3.6840246175689706e-02  8.8857215664389436e-02 3.1389464963132087e-02 3.7192111685445506e-02  1.0082990339286148e-01 3.1502878713346817e-02 3.7434907222461296e-02  1.1305605631450061e-01 3.1616579354929245e-02 3.7650977517896402e-02  1.2546460700749706e-01 3.1797712108928927e-02 3.7903314087007325e-02  1.3797146078900496e-01 3.2109586622892844e-02 3.8218993058812281e-02  0.0000000000000000e+00 0.0000000000000000e+00 0.0000000000000000e+00  1.2210197162470762e-02 9.1451859206977664e-03 2.1065954236247741e-02  2.1721564921013299e-02 1.6198869265110064e-02 2.8590298418634925e-02  3.1797896357914246e-02 2.0602460866697356e-02 3.2399582897139886e-02  4.2362673680403640e-02 2.3123885550230469e-02 3.4582042205951437e-02  5.3304648253987570e-02 2.4477945183919526e-02 3.5880252578176376e-02  6.4593477488664619e-02 2.5141520749566427e-02 3.6641224066370791e-02  7.6203333755033145e-02 2.5417105968099114e-02 3.7075689675309227e-02  8.8095857542643416e-02 2.5496847098110738e-02 3.7325986177365288e-02  1.0022614877495377e-01 2.5505676158170874e-02 3.7492611710741870e-02  1.1254726715123149e-01 2.5530671178347567e-02 3.7650793876598934e-02  1.2500680343593415e-01 2.5645208828812997e-02 3.7856488293520389e-02  1.3753917698565910e-01 2.5949759739916516e-02 3.8124914948645588e-02  0.0000000000000000e+00 0.0000000000000000e+00 0.0000000000000000e+00  1.1831991206752736e-02 6.3298552506355927e-03 2.1607047645671583e-02  2.0549906160535657e-02 1.1577177277260781e-02 2.9585909828922015e-02  3.0133403782906191e-02 1.5219993453859083e-02 3.3459332950171686e-02  4.0631943203911239e-02 1.7433324288728652e-02 3.5492570542154329e-02  5.1748979652571379e-02 1.8634712559355834e-02 3.6580677468279137e-02  6.3295038155751979e-02 1.9201550765796018e-02 3.7141355388239823e-02  7.5157254856849057e-02 1.9406301812888885e-02 3.7407952261970197e-02  8.7259202496692487e-02 1.9429893998630276e-02 3.7524659680434155e-02  9.9544453192369861e-02 1.9390188533945744e-02 3.7586206700086014e-02  1.1196823117760468e-01 1.9369102040060475e-02 3.7659419748227466e-02  1.2448770699441242e-01 1.9440261495959021e-02 3.7789986936157462e-02  1.3705572057933726e-01 1.9718750498610500e-02 3.7979803347036295e-02  0.0000000000000000e+00 0.0000000000000000e+00 0.0000000000000000e+00  1.1698837840438549e-02 4.0529874515845927e-03 2.1966725221397441e-02  1.9981634177973856e-02 7.5042009356287836e-03 3.0271459659182810e-02  2.9153763122811819e-02 1.0050217750513599e-02 3.4266830847795506e-02  3.9458342016053534e-02 1.1681521030974029e-02 3.6248865242502246e-02  5.0581007845860657e-02 1.2597217038099585e-02 3.7202493308510103e-02  6.2246160218866621e-02 1.3034294148042426e-02 3.7608044180184062e-02  7.4266284808490540e-02 1.3188274254868466e-02 3.7730218659802368e-02  8.6518894843730043e-02 1.3197927712305997e-02 3.7724114228675311e-02  9.8925009968324429e-02 1.3156181588341719e-02 3.7684258688627507e-02  1.1143289275618663e-01 1.3128526136129344e-02 3.7671816382288156e-02  1.2400365220208084e-01 1.3175609062442119e-02 3.7724048162359268e-02  1.3660793243830144e-01 1.3395697577001991e-02 3.7833073856158320e-02  0.0000000000000000e+00 0.0000000000000000e+00 0.0000000000000000e+00  1.1647766727991424e-02 2.0328229140791501e-03 2.2176994096230994e-02  1.9709410319290025e-02 3.7747151651882473e-03 3.0670441380583655e-02  2.8636557764347623e-02 5.0965576967000950e-03 3.4760343397539667e-02  3.8784966842997586e-02 5.9739410990041321e-03 3.6734456080682758e-02  4.9865059777527199e-02 6.4832452557263111e-03 3.7618054331362914e-02  6.1569567079845865e-02 6.7354173410211701e-03 3.7930036112696172e-02  7.3668641829417278e-02 6.8312805644769603e-03 3.7958361416418653e-02  8.6007189275679727e-02 6.8461682198995375e-03 3.7868455140619144e-02  9.8486924900118067e-02 6.8318114693127520e-03 3.7756855468833360e-02  1.1104791822473747e-01 6.8250116755518954e-03 3.7682022393495739e-02  1.2365240199896743e-01 6.8595219567302631e-03 3.7676205841002834e-02  1.3628425188541404e-01 6.9901826933782161e-03 3.7726175594099111e-02  0.0000000000000000e+00 0.0000000000000000e+00 0.0000000000000000e+00  1.1622840893547806e-02 1.2630460455129359e-04 2.2249985795933295e-02  1.9613454348914313e-02 2.1036155901880193e-04 3.0806973279589995e-02  2.8461394193495533e-02 2.7001521713107210e-04 3.4933026893851138e-02  3.8552131341497112e-02 3.1559821797765529e-04 3.6908967062713988e-02  4.9608675943014359e-02 3.5135975026900803e-04 3.7770434842073451e-02  6.1318318883096773e-02 3.8067174116447313e-04 3.8049868237867206e-02  7.3438931511049327e-02 4.0689026394919120e-04 3.8044258797622812e-02  8.5804135854077188e-02 4.3246741940765364e-04 3.7923350122824960e-02  9.8308060423083349e-02 4.5880703631080488e-04 3.7784785421253290e-02  1.1088699085655278e-01 4.8634160253716431e-04 3.7686172487650424e-02  1.2350327192041266e-01 5.1353007723654398e-04 3.7657931131983916e-02  1.3614693522615470e-01 5.3697967611990880e-04 3.7685335920234792e-02  0.0000000000000000e+00 0.0000000000000000e+00 0.0000000000000000e+00  1.1606912012506909e-02 -1.7665609663796988e-03 2.2190823534097997e-02  1.9662014247288348e-02 -3.3384490374106356e-03 3.0690877528169500e-02  2.8593002324415192e-02 -4.5431814789280052e-03 3.4788461136512301e-02  3.8737405565946549e-02 -5.3343349372463843e-03 3.6764412133639450e-02  4.9808828997557592e-02 -5.7772119060579301e-03 3.7644030981764949e-02  6.1505457472773799e-02 -5.9742342629199759e-03 3.7949853097957544e-02  7.3599651831816340e-02 -6.0193537180860280e-03 3.7972079176154250e-02  8.5936135522860280e-02 -5.9835911229042847e-03 3.7876968427849107e-02  9.8415544075796488e-02 -5.9165088012851025e-03 3.7761182172778872e-02  1.1097673931557440e-01 -5.8543345568126386e-03 3.7682796836669419e-02  1.2358168913724692e-01 -5.8334601449089316e-03 3.7673310787267218e-02  1.3621851873263321e-01 -5.9153850538473350e-03 3.7719846781036973e-02  0.0000000000000000e+00 0.0000000000000000e+00 0.0000000000000000e+00  1.1608391938079001e-02 -3.7421992042793685e-03 2.1999599569691018e-02  1.9891735581964155e-02 -7.0174300498175119e-03 3.0319937329606667e-02  2.9070994736761380e-02 -9.4560347562634237e-03 3.4330300652976119e-02  3.9361323785434658e-02 -1.1019044460249292e-02 3.6311691868043248e-02  5.0464139555915485e-02 -1.1884273579164637e-02 3.7254041267792221e-02  6.2114461568922134e-02 -1.2275765012946161e-02 3.7645743707825585e-02  7.4126811208055074e-02 -1.2382925083343738e-02 3.7755337200882991e-02  8.6376923152124321e-02 -1.2342554963324681e-02 3.7739055893006739e-02  9.8783377406997649e-02 -1.2247445826290173e-02 3.7691358113661089e-02  1.1129235857108516e-01 -1.2163442513084172e-02 3.7672584450461441e-02  1.2386435100109315e-01 -1.2152454923720747e-02 3.7718551912143621e-02  1.3647742625160397e-01 -1.2318053385034288e-02 3.7821568822259011e-02  0.0000000000000000e+00 0.0000000000000000e+00 0.0000000000000000e+00  1.1686468650539728e-02 -5.9315712582695447e-03 2.1672467939770932e-02  2.0440809302567857e-02 -1.0990309711964047e-02 2.9684593468558302e-02  3.0016513891675992e-02 -1.4558823714218400e-02 3.3572025788188818e-02  4.0476235181150517e-02 -1.6743811842094867e-02 3.5590926567010447e-02  5.1561176374791268e-02 -1.7921124992516992e-02 3.6654084019825048e-02  6.3090035235584152e-02 -1.8453923742383957e-02 3.7190889655596013e-02  7.4946059947999619e-02 -1.8614210856343259e-02 3.7438498073789232e-02  8.7047726605459591e-02 -1.8586177913326722e-02 3.7541282484063992e-02  9.9335104415805800e-02 -1.8490734289542735e-02 3.7592861330663169e-02  1.1176142179614340e-01 -1.8411509030338384e-02 3.7658526242861604e-02  1.2428324388910754e-01 -1.8421395093924653e-02 3.7782128931133807e-02  1.3686141476140179e-01 -1.8635620837445289e-02 3.7964989194349777e-02  0.0000000000000000e+00 0.0000000000000000e+00 0.0000000000000000e+00  1.2078021555115498e-02 -8.5788225386935410e-03 2.1207206675982120e-02  2.1639566406158779e-02 -1.5440624215408044e-02 2.8788014633370721e-02  3.1629022455622817e-02 -1.9868109575341186e-02 3.2576941149913920e-02  4.2122069198884206e-02 -2.2430098736888858e-02 3.4708879921024949e-02  5.3032102791312485e-02 -2.3785396212235185e-02 3.5959988291047962e-02  6.4312163161869176e-02 -2.4417422699606072e-02 3.6687282793685015e-02  7.5922712225567221e-02 -2.4643593553390759e-02 3.7100025703906379e-02  8.7818832940650793e-02 -2.4665988794018628e-02 3.7336727727764280e-02  9.9952937292387301e-02 -2.4614647982025145e-02 3.7494540832092062e-02  1.1227734966791673e-01 -2.4578898788700027e-02 3.7646167457089694e-02  1.2474004270801156e-01 -2.4630079767624879e-02 3.7846065589029747e-02  1.3728060933002165e-01 -2.4859094772771057e-02 3.8108800599821191e-02  0.0000000000000000e+00 0.0000000000000000e+00 0.0000000000000000e+00  1.3618019159180456e-02 -1.2241948799403362e-02 2.0650819435919475e-02  2.4076249357889812e-02 -2.0486521341468934e-02 2.7739130084876940e-02  3.4068830777817999e-02 -2.5230916084026351e-02 3.1560869080267971e-02  4.4205997540761967e-02 -2.7887976729438501e-02 3.3900628749107937e-02  5.4681558726928294e-02 -2.9335370828078137e-02 3.5373334518538371e-02  6.5564919880905070e-02 -3.0080541335509484e-02 3.6287253431938796e-02  7.6856983306991838e-02 -3.0426855657452217e-02 3.6844832461610022e-02  8.8519627051982200e-02 -3.0563361397679293e-02 3.7190449267426297e-02  1.0049694751545819e-01 -3.0613649958364578e-02 3.7429547204949003e-02  1.1272596440814332e-01 -3.0664346106815371e-02 3.7642206460764854e-02  1.2513695271953887e-01 -3.0780753559066145e-02 3.7890681580946162e-02  1.3764702365378786e-01 -3.1014271504238088e-02 3.8204025289782610e-02  0.0000000000000000e+00 0.0000000000000000e+00 0.0000000000000000e+00  1.8172286093653640e-02 -1.8485733202763414e-02 1.9791045610122803e-02  2.8106318184108615e-02 -2.6033409164855487e-02 2.7130616097984901e-02  3.7069593816677356e-02 -3.0295013022987597e-02 3.1089669801359753e-02  4.6340613080072625e-02 -3.2885666927161467e-02 3.3559287702873843e-02  5.6148556899246305e-02 -3.4471178312768448e-02 3.5140853133216264e-02  6.6547502794387578e-02 -3.5424072681296430e-02 3.6137173109735875e-02  7.7509336278389379e-02 -3.5983100657350352e-02 3.6753818252555984e-02  8.8964274489419654e-02 -3.6310207886315865e-02 3.7141140403501346e-02  1.0082844127683421e-01 -3.6519639294636086e-02 3.7409903542206149e-02  1.1301451911358018e-01 -3.6695074829088119e-02 3.7643336647020659e-02  1.2542538391747524e-01 -3.6896064968593580e-02 3.7903747177622800e-02  1.3793812037066222e-01 -3.7149995607943007e-02 3.8224778628697303e-02  0.0000000000000000e+00 0.0000000000000000e+00 0.0000000000000000e+00  1.3395930931013215e-02 2.0096761390628749e-02 1.3272498887216754e-02  2.4171473926766142e-02 2.7453788318972380e-02 2.1379729043995155e-02  3.4385016512004429e-02 3.1365598670108137e-02 2.5935369108474056e-02  4.4574026844041756e-02 3.3801665717869057e-02 2.8525046185897077e-02  5.5047082615565360e-02 3.5329489756612688e-02 2.9987383181172264e-02  6.5919185498844915e-02 3.6270056393903925e-02 3.0782253760116351e-02  7.7201560912768266e-02 3.6840246175721750e-02 3.1189605443290736e-02  8.8857215664396999e-02 3.7192111685483378e-02 3.1389464963096830e-02  1.0082990339286618e-01 3.7434907222511284e-02 3.1502878713306717e-02  1.1305605631450651e-01 3.7650977517953765e-02 3.1616579354882351e-02  1.2546460700750264e-01 3.7903314087071219e-02 3.1797712108869128e-02  1.3797146078900799e-01 3.8218993058883731e-02 3.2109586622825322e-02  0.0000000000000000e+00 0.0000000000000000e+00 0.0000000000000000e+00  7.1742092359917027e-03 1.3408362160860688e-02 1.3408362160859617e-02  1.9318346487483987e-02 2.1366179876657024e-02 2.1366179876654595e-02  3.1162651756602575e-02 2.5876082620768875e-02 2.5876082620762110e-02  4.2420981014981714e-02 2.8470113607389505e-02 2.8470113607374160e-02  5.3604073690529032e-02 2.9941841614914241e-02 2.9941841614887110e-02  6.4954459785718163e-02 3.0746338296764764e-02 3.0746338296738111e-02  7.6550780648285174e-02 3.1163112376431618e-02 3.1163112376400088e-02  8.8398992814962898e-02 3.1371936399067844e-02 3.1371936399028556e-02  1.0047407546801976e-01 3.1493705017390849e-02 3.1493705017345587e-02  1.1273817142580986e-01 3.1615388720453566e-02 3.1615388720397743e-02  1.2514512503232605e-01 3.1804024693921268e-02 3.1804024693857562e-02  1.3762902769805133e-01 3.2108063470967396e-02 3.2108063470897841e-02  0.0000000000000000e+00 0.0000000000000000e+00 0.0000000000000000e+00  5.8032543477815951e-03 8.8315063934298783e-03 1.4111991099435759e-02  1.6715314905207813e-02 1.5917242667020066e-02 2.2302273523624086e-02  2.8542702078173339e-02 2.0281206800803999e-02 2.6698714310697470e-02  4.0257807738585498e-02 2.2834875124341802e-02 2.9106105322225195e-02  5.1937397192514397e-02 2.4246112094167733e-02 3.0394938901112629e-02  6.3706163895623558e-02 2.4969652464410103e-02 3.1050321449076757e-02  7.5621768473884451e-02 2.5299077522412148e-02 3.1353998822226448e-02  8.7696479302392674e-02 2.5424292521052889e-02 3.1479716699770420e-02  9.9920334541544656e-02 2.5470953313342318e-02 3.1541171774886016e-02  1.1227416258717141e-01 2.5527923683904868e-02 3.1618742765933364e-02  1.2473222583628861e-01 2.5668458816186901e-02 3.1771956224043836e-02  1.3724859088916053e-01 2.5969010486446752e-02 3.2036410685314584e-02  0.0000000000000000e+00 0.0000000000000000e+00 0.0000000000000000e+00  5.2359960864158950e-03 6.0125931451589926e-03 1.4625644517052536e-02  1.5416623504170607e-02 1.1226610658724720e-02 2.3208082609722576e-02  2.6863693927951560e-02 1.4829418721390380e-02 2.7667774238157656e-02  3.8582450244379049e-02 1.7067607792319413e-02 2.9941538344947526e-02  5.0464408082597362e-02 1.8330137629820876e-02 3.1042234554577962e-02  6.2493902468169701e-02 1.8969144811524497e-02 3.1514073297465729e-02  7.4654631648362682e-02 1.9243115838637154e-02 3.1662370991161051e-02  8.6928445760722409e-02 1.9327497649039925e-02 3.1664854062224787e-02  9.9298319401564819e-02 1.9339566521352741e-02 3.1630899046217735e-02  1.1175017836903885e-01 1.9362724557687189e-02 3.1633795937221425e-02  1.2427080335457642e-01 1.9470210408072022e-02 3.1725252897652066e-02  1.3683505171063542e-01 1.9750793207087110e-02 3.1934159676477343e-02  0.0000000000000000e+00 0.0000000000000000e+00 0.0000000000000000e+00  4.9702543047120649e-03 3.8090242123001582e-03 1.4986615510975156e-02  1.4730162917185834e-02 7.2226199446706963e-03 2.3873746390758309e-02  2.5849763477198102e-02 9.7299858237947252e-03 2.8437754832135585e-02  3.7442310256877699e-02 1.1371814680705625e-02 3.0660842328249924e-02  4.9362763152997848e-02 1.2330686876067998e-02 3.1634414212020900e-02  6.1520114848654897e-02 1.2825382811105950e-02 3.1959484980847268e-02  7.3835375915307880e-02 1.3038336409916241e-02 3.1970674129557335e-02  8.6252243914420060e-02 1.3101906199458755e-02 3.1856894927005198e-02  9.8735917495481593e-02 1.3107290371680982e-02 3.1728295094326606e-02  1.1126840922614889e-01 1.3120504190225568e-02 3.1654070766882376e-02  1.2384312363445446e-01 1.3201700592725579e-02 3.1680743774885493e-02  1.3645410513921744e-01 1.3427341291307248e-02 3.1834794684208724e-02  0.0000000000000000e+00 0.0000000000000000e+00 0.0000000000000000e+00  4.8419393350708825e-03 1.8772621186460489e-03 1.5198223087589856e-02  1.4380390065197167e-02 3.6111992839059515e-03 2.4270235558721140e-02  2.5301529664754335e-02 4.9110267466648755e-03 2.8917821160125066e-02  3.6782324759299781e-02 5.7940127362865789e-03 3.1129089312051245e-02  4.8686387950306838e-02 6.3262816784969058e-03 3.2034155103410143e-02  6.0892773133339580e-02 6.6103371446333261e-03 3.2269232599559744e-02  7.3286997913879062e-02 6.7400193786042589e-03 3.2190540941940467e-02  8.5785849295346051e-02 6.7866616336838236e-03 3.1996980048045867e-02  9.8338956779745898e-02 6.8005446424930930e-03 3.1801123167884492e-02  1.1092250319007142e-01 6.8184400942823938e-03 3.1670603205320121e-02  1.2353286592845428e-01 6.8740654828386445e-03 3.1649412087353543e-02  1.3617794579383377e-01 7.0104966443210771e-03 3.1763895263986375e-02  0.0000000000000000e+00 0.0000000000000000e+00 0.0000000000000000e+00  4.7924609989819329e-03 5.8751221114621859e-05 1.5269990082787724e-02  1.4256666866777366e-02 1.7861154236562468e-04 2.4404311496606806e-02  2.5112267650248307e-02 2.4273474963128512e-04 2.9084065535182460e-02  3.6550922408627465e-02 2.9533749829377940e-04 3.1295223400560825e-02  4.8442184964991176e-02 3.3580260088163428e-04 3.2178538009656650e-02  6.0658670408022933e-02 3.6859072472289706e-04 3.2382629369763674e-02  7.3075414614997655e-02 3.9774575372513707e-04 3.2271949336315081e-02  8.5599998481212261e-02 4.2587354836100196e-04 3.2049405385548020e-02  9.8176002175755089e-02 4.5432628723310987e-04 3.1828710354131047e-02  1.1077682401155076e-01 4.8350191611873063e-04 3.1677062503926476e-02  1.2339960294488286e-01 5.1267215157315619e-04 3.1637634167333457e-02  1.3605832355148975e-01 5.3980888244322376e-04 3.1737165640901344e-02  0.0000000000000000e+00 0.0000000000000000e+00 0.0000000000000000e+00  4.8027410116512417e-03 -1.7536542897729657e-03 1.5206078764011860e-02  1.4327978003380069e-02 -3.2422320934409618e-03 2.4282153560456352e-02  2.5250271625206419e-02 -4.4140523270407477e-03 2.8934853962122684e-02  3.6729154975661711e-02 -5.1962245839077747e-03 3.1147324726312150e-02  4.8628398424537166e-02 -5.6520042747440916e-03 3.2049680845095505e-02  6.0829848900129511e-02 -5.8732243897000186e-03 3.2280884109329666e-02  7.3220721211342696e-02 -5.9457814586453680e-03 3.2198596156573757e-02  8.5718047649630216e-02 -5.9364463892540983e-03 3.2002083546233073e-02  9.8270892010787536e-02 -5.8933443117125048e-03 3.1803816372615701e-02  1.1085458134268940e-01 -5.8526843355043547e-03 3.1671091202855307e-02  1.2346518660334166e-01 -5.8494307915288694e-03 3.1647503131386132e-02  1.3611397381946475e-01 -5.9307269418835207e-03 3.1759983611879650e-02  0.0000000000000000e+00 0.0000000000000000e+00 0.0000000000000000e+00  4.8790371598210506e-03 -3.6667441847487809e-03 1.5003880456928211e-02  1.4625528426824679e-02 -6.8141309947358794e-03 2.3904246034446925e-02  2.5749852609394459e-02 -9.1974216533619504e-03 2.8477581899068211e-02  3.7335493403232847e-02 -1.0754259469634410e-02 3.0699116472236825e-02  4.9244635948691141e-02 -1.1650039227774240e-02 3.1664848138889014e-02  6.1392386427873771e-02 -1.2089304737069937e-02 3.1981366832622218e-02  7.3702077353987955e-02 -1.2247941365446831e-02 3.1985294849924996e-02  8.6116932713675598e-02 -1.2255923566379600e-02 3.1865801722542178e-02  9.8600738486060727e-02 -1.2203907237673015e-02 3.17326757390