<?xml version="1.0"?>
<VTKFile type="UnstructuredGrid"  version="0.1"  >
<UnstructuredGrid>
<Piece  NumberOfPoints="49" NumberOfCells="72">
<Points>
<DataArray  type="Float64"  NumberOfComponents="3"  format="ascii">0.5833333333333334 0 0  0.6666666666666666 0 0  0.6666666666666666 0.08333333333333333 0  0.5833333333333334 0.08333333333333333 0  0.75 0 0  0.75 0.08333333333333333 0  0.8333333333333334 0 0  0.8333333333333334 0.08333333333333333 0  0.9166666666666666 0 0  0.9166666666666666 0.08333333333333333 0  1 0 0  1 0.08333333333333333 0  0.6666666666666666 0.1666666666666667 0  0.5833333333333334 0.1666666666666667 0  0.75 0.1666666666666667 0  0.8333333333333334 0.1666666666666667 0  0.9166666666666666 0.1666666666666667 0  1 0.1666666666666667 0  0.6666666666666666 0.25 0  0.5833333333333334 0.25 0  0.75 0.25 0  0.8333333333333334 0.25 0  0.9166666666666666 0.25 0  1 0.25 0  0.6666666666666666 0.3333333333333333 0  0.5833333333333334 0.3333333333333333 0  0.75 0.3333333333333333 0  0.8333333333333334 0.3333333333333333 0  0.9166666666666666 0.3333333333333333 0  1 0.3333333333333333 0  0.6666666666666666 0.4166666666666667 0  0.75 0.4166666666666667 0  0.8333333333333334 0.4166666666666667 0  0.9166666666666666 0.4166666666666667 0  1 0.4166666666666667 0  0.75 0.5 0  0.6666666666666666 0.5 0  0.8333333333333334 0.5 0  0.9166666666666666 0.5 0  1 0.5 0  0.75 0.5833333333333334 0  0.6666666666666666 0.5833333333333334 0  0.8333333333333334 0.5833333333333334 0  0.9166666666666666 0.5833333333333334 0  1 0.5833333333333334 0  0.75 0.6666666666666666 0  0.8333333333333334 0.6666666666666666 0  0.9166666666666666 0.6666666666666666 0  1 0.6666666666666666 0  </DataArray>
</Points>
<Cells>
<DataArray  type="UInt32"  Name="connectivity"  format="ascii">0 1 2  0 3 2  1 4 5  1 2 5  4 6 7  4 5 7  6 8 9  6 7 9  8 10 11  8 9 11  3 2 12  3 13 12  2 5 14  2 12 14  5 7 15  5 14 15  7 9 16  7 15 16  9 11 17  9 16 17  13 12 18  13 19 18  12 14 20  12 18 20  14 15 21  14 20 21  15 16 22  15 21 22  16 17 23  16 22 23  19 18 24  19 25 24  18 20 26  18 24 26  20 21 27  20 26 27  21 22 28  21 27 28  22 23 29  22 28 29  25 24 30  24 26 31  24 30 31  26 27 32  26 31 32  27 28 33  27 32 33  28 29 34  28 33 34  30 31 35  30 36 35  31 32 37  31 35 37  32 33 38  32 37 38  33 34 39  33 38 39  36 35 40  36 41 40  35 37 42  35 40 42  37 38 43  37 42 43  38 39 44  38 43 44  41 40 45  40 42 46  40 45 46  42 43 47  42 46 47  43 44 48  43 47 48  </DataArray>
<DataArray  type="UInt32"  Name="offsets"  format="ascii">3 6 9 12 15 18 21 24 27 30 33 36 39 42 45 48 51 54 57 60 63 66 69 72 75 78 81 84 87 90 93 96 99 102 105 108 111 114 117 120 123 126 129 132 135 138 141 144 147 150 153 156 159 162 165 168 171 174 177 180 183 186 189 192 195 198 201 204 207 210 213 216 </DataArray>
<DataArray  type="UInt8"  Name="types"  format="ascii">5 5 5 5 5 5 5 5 5 5 5 5 5 5 5 5 5 5 5 5 5 5 5 5 5 5 5 5 5 5 5 5 5 5 5 5 5 5 5 5 5 5 5 5 5 5 5 5 5 5 5 5 5 5 5 5 5 5 5 5 5 5 5 5 5 5 5 5 5 5 5 5 </DataArray>
</Cells>
<PointData  Vectors="f_32"> 
<DataArray  type="Float64"  Name="f_32"  NumberOfComponents="3" format="ascii">5.1235331475247982e-02 4.9571512000296351e-02 0.0000000000000000e+00  5.9002882493670257e-02 4.9990418851124326e-02 0.0000000000000000e+00  5.8254532416818390e-02 4.2283383202982187e-02 0.0000000000000000e+00  5.0195020369784904e-02 4.2102860310630708e-02 0.0000000000000000e+00  6.7072320039412506e-02 5.0268295464292519e-02 0.0000000000000000e+00  6.6472751728753221e-02 4.2359264054043999e-02 0.0000000000000000e+00  7.5378282980914077e-02 5.0548483039695724e-02 0.0000000000000000e+00  7.4829689376536904e-02 4.2480302228902908e-02 0.0000000000000000e+00  8.3848381481742423e-02 5.0925758592680441e-02 0.0000000000000000e+00  8.3298751397340512e-02 4.2753530636639343e-02 0.0000000000000000e+00  9.2366860599595479e-02 5.1432061576967988e-02 0.0000000000000000e+00  9.1825503625385926e-02 4.3250409493910430e-02 0.0000000000000000e+00  5.7021897537994602e-02 3.4326355336791896e-02 0.0000000000000000e+00  4.8638890593270687e-02 3.4249309586112907e-02 0.0000000000000000e+00  6.5463405236468847e-02 3.4303912696038753e-02 0.0000000000000000e+00  7.3968199388886963e-02 3.4332475378544634e-02 0.0000000000000000e+00  8.2539293869291583e-02 3.4527607789955728e-02 0.0000000000000000e+00  9.1157187448666077e-02 3.5024733594904503e-02 0.0000000000000000e+00  5.5699080314478032e-02 2.6119219215853754e-02 0.0000000000000000e+00  4.7049279953897676e-02 2.6072481249390315e-02 0.0000000000000000e+00  6.4348968294422479e-02 2.6067896072201783e-02 0.0000000000000000e+00  7.3005759114451854e-02 2.6055372598748894e-02 0.0000000000000000e+00  8.1687138918928440e-02 2.6200429343411921e-02 0.0000000000000000e+00  9.0422266370144722e-02 2.6663686410691924e-02 0.0000000000000000e+00  5.4548908005394553e-02 1.7710639663055243e-02 0.0000000000000000e+00  4.5718770207938381e-02 1.7665620870035457e-02 0.0000000000000000e+00  6.3353269711191193e-02 1.7674084297149031e-02 0.0000000000000000e+00  7.2128280611856929e-02 1.7660984177378665e-02 0.0000000000000000e+00  8.0901083850013669e-02 1.7773278219369585e-02 0.0000000000000000e+00  8.9745473994969141e-02 1.8146976363337820e-02 0.0000000000000000e+00  5.3767750481850285e-02 9.1735868656537319e-03 0.0000000000000000e+00  6.2661850295697458e-02 9.1729396178383237e-03 0.0000000000000000e+00  7.1508223901205120e-02 9.1835767240811671e-03 0.0000000000000000e+00  8.0339881616181094e-02 9.2676867917940772e-03 0.0000000000000000e+00  8.9260861134478148e-02 9.4954212344051121e-03 0.0000000000000000e+00  6.2387987344371384e-02 6.1855809586261587e-04 0.0000000000000000e+00  5.3464198764811940e-02 5.7538838087291711e-04 0.0000000000000000e+00  7.1258186954274022e-02 6.6390035713428561e-04 0.0000000000000000e+00  8.0110978902723007e-02 7.1844235037664286e-04 0.0000000000000000e+00  8.9059318020333025e-02 7.6585305308611942e-04 0.0000000000000000e+00  6.2571371044273572e-02 -7.9368271775567337e-03 0.0000000000000000e+00  5.3674941803459775e-02 -8.0241425464968649e-03 0.0000000000000000e+00  7.1418680346626559e-02 -7.8561481159165995e-03 0.0000000000000000e+00  8.0253268157897809e-02 -7.8326806113974932e-03 0.0000000000000000e+00  8.9173972461744452e-02 -7.9665458487619273e-03 0.0000000000000000e+00  6.3175361504073393e-02 -1.6440909257024607e-02 0.0000000000000000e+00  7.1951851549294898e-02 -1.6334653963439128e-02 0.0000000000000000e+00  8.0729983915945450e-02 -1.6343585344408763e-02 0.0000000000000000e+00  8.9573173854198412e-02 -1.6625029532570623e-02 0.0000000000000000e+00  </DataArray> 
</PointData> 
</Piece>
</UnstructuredGrid>
</VTKFile>