<?xml version="1.0"?>
<VTKFile type="UnstructuredGrid"  version="0.1"  >
<UnstructuredGrid>
<Piece  NumberOfPoints="629" NumberOfCells="2557">
<Points>
<DataArray  type="Float64"  NumberOfComponents="3"  format="ascii">0.5 0 0.4166666666666667  0.5833333333333334 0 0.4166666666666667  0.5833333333333334 0 0.5  0.5833333333333334 0.08333333333333333 0.5  0.5 0 0.5  0.5 0.08333333333333333 0.5  0.6666666666666666 0 0.5  0.6666666666666666 0.08333333333333333 0.5  0.5833333333333334 0.08333333333333333 0.5833333333333334  0.5833333333333334 0 0.5833333333333334  0.5 0 0.5833333333333334  0.5 0.08333333333333333 0.5833333333333334  0.6666666666666666 0.08333333333333333 0.5833333333333334  0.6666666666666666 0 0.5833333333333334  0.75 0 0.5  0.75 0.08333333333333333 0.5  0.75 0.08333333333333333 0.5833333333333334  0.75 0 0.5833333333333334  0.8333333333333334 0 0.5  0.8333333333333334 0.08333333333333333 0.5  0.8333333333333334 0.08333333333333333 0.5833333333333334  0.8333333333333334 0 0.5833333333333334  0.9166666666666666 0 0.5  0.9166666666666666 0.08333333333333333 0.5  0.9166666666666666 0.08333333333333333 0.5833333333333334  0.9166666666666666 0 0.5833333333333334  1 0 0.5  1 0.08333333333333333 0.5  1 0.08333333333333333 0.5833333333333334  1 0 0.5833333333333334  0.5833333333333334 0.1666666666666667 0.5  0.5833333333333334 0.1666666666666667 0.5833333333333334  0.5 0.1666666666666667 0.5  0.5 0.1666666666666667 0.5833333333333334  0.6666666666666666 0.1666666666666667 0.5  0.6666666666666666 0.1666666666666667 0.5833333333333334  0.75 0.1666666666666667 0.5  0.75 0.1666666666666667 0.5833333333333334  0.8333333333333334 0.1666666666666667 0.5  0.8333333333333334 0.1666666666666667 0.5833333333333334  0.9166666666666666 0.1666666666666667 0.5  0.9166666666666666 0.1666666666666667 0.5833333333333334  1 0.1666666666666667 0.5  1 0.1666666666666667 0.5833333333333334  0.5833333333333334 0.25 0.5  0.5833333333333334 0.25 0.5833333333333334  0.5 0.25 0.5  0.5 0.25 0.5833333333333334  0.6666666666666666 0.25 0.5  0.6666666666666666 0.25 0.5833333333333334  0.75 0.25 0.5  0.75 0.25 0.5833333333333334  0.8333333333333334 0.25 0.5  0.8333333333333334 0.25 0.5833333333333334  0.9166666666666666 0.25 0.5  0.9166666666666666 0.25 0.5833333333333334  1 0.25 0.5  1 0.25 0.5833333333333334  0.5833333333333334 0.3333333333333333 0.5  0.5833333333333334 0.3333333333333333 0.5833333333333334  0.5 0.3333333333333333 0.5  0.5 0.3333333333333333 0.5833333333333334  0.6666666666666666 0.3333333333333333 0.5  0.6666666666666666 0.3333333333333333 0.5833333333333334  0.75 0.3333333333333333 0.5  0.75 0.3333333333333333 0.5833333333333334  0.8333333333333334 0.3333333333333333 0.5  0.8333333333333334 0.3333333333333333 0.5833333333333334  0.9166666666666666 0.3333333333333333 0.5  0.9166666666666666 0.3333333333333333 0.5833333333333334  1 0.3333333333333333 0.5  1 0.3333333333333333 0.5833333333333334  0.5833333333333334 0.4166666666666667 0.5  0.5833333333333334 0.4166666666666667 0.5833333333333334  0.5 0.4166666666666667 0.5  0.5 0.4166666666666667 0.5833333333333334  0.6666666666666666 0.4166666666666667 0.5  0.6666666666666666 0.4166666666666667 0.5833333333333334  0.75 0.4166666666666667 0.5  0.75 0.4166666666666667 0.5833333333333334  0.8333333333333334 0.4166666666666667 0.5  0.8333333333333334 0.4166666666666667 0.5833333333333334  0.9166666666666666 0.4166666666666667 0.5  0.9166666666666666 0.4166666666666667 0.5833333333333334  1 0.4166666666666667 0.5  1 0.4166666666666667 0.5833333333333334  0.5833333333333334 0.5 0.5  0.5833333333333334 0.5 0.5833333333333334  0.5 0.5 0.5  0.5 0.5 0.5833333333333334  0.6666666666666666 0.5 0.5  0.6666666666666666 0.5 0.5833333333333334  0.75 0.5 0.5  0.75 0.5 0.5833333333333334  0.8333333333333334 0.5 0.5  0.8333333333333334 0.5 0.5833333333333334  0.9166666666666666 0.5 0.5  0.9166666666666666 0.5 0.5833333333333334  1 0.5 0.5  1 0.5 0.5833333333333334  0.5833333333333334 0.5833333333333334 0.5  0.5833333333333334 0.5833333333333334 0.5833333333333334  0.5 0.5833333333333334 0.5  0.5 0.5833333333333334 0.5833333333333334  0.6666666666666666 0.5833333333333334 0.5  0.6666666666666666 0.5833333333333334 0.5833333333333334  0.75 0.5833333333333334 0.5  0.75 0.5833333333333334 0.5833333333333334  0.8333333333333334 0.5833333333333334 0.5  0.8333333333333334 0.5833333333333334 0.5833333333333334  0.9166666666666666 0.5833333333333334 0.5  0.9166666666666666 0.5833333333333334 0.5833333333333334  1 0.5833333333333334 0.5  1 0.5833333333333334 0.5833333333333334  0.5833333333333334 0.6666666666666666 0.5  0.5833333333333334 0.6666666666666666 0.5833333333333334  0.5 0.6666666666666666 0.5  0.5 0.6666666666666666 0.5833333333333334  0.6666666666666666 0.6666666666666666 0.5  0.6666666666666666 0.6666666666666666 0.5833333333333334  0.75 0.6666666666666666 0.5  0.75 0.6666666666666666 0.5833333333333334  0.8333333333333334 0.6666666666666666 0.5  0.8333333333333334 0.6666666666666666 0.5833333333333334  0.9166666666666666 0.6666666666666666 0.5  0.9166666666666666 0.6666666666666666 0.5833333333333334  1 0.6666666666666666 0.5  1 0.6666666666666666 0.5833333333333334  0.5833333333333334 0.75 0.5  0.5833333333333334 0.75 0.5833333333333334  0.5 0.75 0.5  0.5 0.75 0.5833333333333334  0.6666666666666666 0.75 0.5  0.6666666666666666 0.75 0.5833333333333334  0.75 0.75 0.5  0.75 0.75 0.5833333333333334  0.8333333333333334 0.75 0.5  0.8333333333333334 0.75 0.5833333333333334  0.9166666666666666 0.75 0.5  0.9166666666666666 0.75 0.5833333333333334  1 0.75 0.5  1 0.75 0.5833333333333334  0.5833333333333334 0.8333333333333334 0.5  0.5833333333333334 0.8333333333333334 0.5833333333333334  0.5 0.8333333333333334 0.5  0.5 0.8333333333333334 0.5833333333333334  0.6666666666666666 0.8333333333333334 0.5  0.6666666666666666 0.8333333333333334 0.5833333333333334  0.75 0.8333333333333334 0.5  0.75 0.8333333333333334 0.5833333333333334  0.8333333333333334 0.8333333333333334 0.5  0.8333333333333334 0.8333333333333334 0.5833333333333334  0.9166666666666666 0.8333333333333334 0.5  0.9166666666666666 0.8333333333333334 0.5833333333333334  1 0.8333333333333334 0.5  1 0.8333333333333334 0.5833333333333334  0.5833333333333334 0.9166666666666666 0.5  0.5833333333333334 0.9166666666666666 0.5833333333333334  0.5 0.9166666666666666 0.5  0.5 0.9166666666666666 0.5833333333333334  0.6666666666666666 0.9166666666666666 0.5  0.6666666666666666 0.9166666666666666 0.5833333333333334  0.75 0.9166666666666666 0.5  0.75 0.9166666666666666 0.5833333333333334  0.8333333333333334 0.9166666666666666 0.5833333333333334  0.9166666666666666 0.9166666666666666 0.5833333333333334  1 0.9166666666666666 0.5833333333333334  0.5833333333333334 1 0.5  0.5833333333333334 1 0.5833333333333334  0.5 1 0.5  0.5 1 0.5833333333333334  0.6666666666666666 1 0.5  0.6666666666666666 1 0.5833333333333334  0.75 1 0.5  0.75 1 0.5833333333333334  0.8333333333333334 1 0.5833333333333334  0.5833333333333334 0.08333333333333333 0.6666666666666666  0.5833333333333334 0 0.6666666666666666  0.5 0 0.6666666666666666  0.5 0.08333333333333333 0.6666666666666666  0.6666666666666666 0.08333333333333333 0.6666666666666666  0.6666666666666666 0 0.6666666666666666  0.75 0.08333333333333333 0.6666666666666666  0.75 0 0.6666666666666666  0.8333333333333334 0.08333333333333333 0.6666666666666666  0.8333333333333334 0 0.6666666666666666  0.9166666666666666 0.08333333333333333 0.6666666666666666  0.9166666666666666 0 0.6666666666666666  1 0.08333333333333333 0.6666666666666666  1 0 0.6666666666666666  0.5833333333333334 0.1666666666666667 0.6666666666666666  0.5 0.1666666666666667 0.6666666666666666  0.6666666666666666 0.1666666666666667 0.6666666666666666  0.75 0.1666666666666667 0.6666666666666666  0.8333333333333334 0.1666666666666667 0.6666666666666666  0.9166666666666666 0.1666666666666667 0.6666666666666666  1 0.1666666666666667 0.6666666666666666  0.5833333333333334 0.25 0.6666666666666666  0.5 0.25 0.6666666666666666  0.6666666666666666 0.25 0.6666666666666666  0.75 0.25 0.6666666666666666  0.8333333333333334 0.25 0.6666666666666666  0.9166666666666666 0.25 0.6666666666666666  1 0.25 0.6666666666666666  0.5833333333333334 0.3333333333333333 0.6666666666666666  0.5 0.3333333333333333 0.6666666666666666  0.6666666666666666 0.3333333333333333 0.6666666666666666  0.75 0.3333333333333333 0.6666666666666666  0.8333333333333334 0.3333333333333333 0.6666666666666666  0.9166666666666666 0.3333333333333333 0.6666666666666666  1 0.3333333333333333 0.6666666666666666  0.5833333333333334 0.4166666666666667 0.6666666666666666  0.5 0.4166666666666667 0.6666666666666666  0.6666666666666666 0.4166666666666667 0.6666666666666666  0.75 0.4166666666666667 0.6666666666666666  0.8333333333333334 0.4166666666666667 0.6666666666666666  0.9166666666666666 0.4166666666666667 0.6666666666666666  1 0.4166666666666667 0.6666666666666666  0.5833333333333334 0.5 0.6666666666666666  0.5 0.5 0.6666666666666666  0.6666666666666666 0.5 0.6666666666666666  0.75 0.5 0.6666666666666666  0.8333333333333334 0.5 0.6666666666666666  0.9166666666666666 0.5 0.6666666666666666  1 0.5 0.6666666666666666  0.5833333333333334 0.5833333333333334 0.6666666666666666  0.5 0.5833333333333334 0.6666666666666666  0.6666666666666666 0.5833333333333334 0.6666666666666666  0.75 0.5833333333333334 0.6666666666666666  0.8333333333333334 0.5833333333333334 0.6666666666666666  0.9166666666666666 0.5833333333333334 0.6666666666666666  1 0.5833333333333334 0.6666666666666666  0.5833333333333334 0.6666666666666666 0.6666666666666666  0.5 0.6666666666666666 0.6666666666666666  0.6666666666666666 0.6666666666666666 0.6666666666666666  0.75 0.6666666666666666 0.6666666666666666  0.8333333333333334 0.6666666666666666 0.6666666666666666  0.9166666666666666 0.6666666666666666 0.6666666666666666  1 0.6666666666666666 0.6666666666666666  0.5833333333333334 0.75 0.6666666666666666  0.5 0.75 0.6666666666666666  0.6666666666666666 0.75
[...]
<PointData  Vectors="f_35"> 
<DataArray  type="Float64"  Name="f_35"  NumberOfComponents="3" format="ascii">5.8914543543604404e-02 3.4100456332565657e-02 5.8461634004474978e-03  7.0951375795984997e-02 3.4029398196075991e-02 5.8809920636636679e-03  7.0801611634216152e-02 3.4092804431085214e-02 1.0211432387309960e-04  7.0574428593492999e-02 2.8804088523080314e-02 1.0417073188932256e-04  5.8734002785552145e-02 3.4195122584487744e-02 1.0049762265812415e-04  5.8298166153592082e-02 2.9008321357243468e-02 1.0364442269423775e-04  8.3050882516745972e-02 3.3938020678788983e-02 1.0659470242633211e-04  8.2934047934066904e-02 2.8563163891256006e-02 1.0781206827908295e-04  7.0707964426636655e-02 2.8734814012015133e-02 -5.6041306936371405e-03  7.0948405762881278e-02 3.4023211347248540e-02 -5.6747826214763233e-03  5.8910586644916468e-02 3.4093539853399205e-02 -5.6436083562107220e-03  5.8460062074750373e-02 2.8907008385732756e-02 -5.5412281658680593e-03  8.3039196624528730e-02 2.8520043340123521e-02 -5.6026380606648907e-03  8.3166996651259706e-02 3.3894672450313156e-02 -5.6467951219203814e-03  9.5390499240980350e-02 3.3790597671342772e-02 1.1297253447288440e-04  9.5324470874025860e-02 2.8350447111010365e-02 1.1339521925154762e-04  9.5406457179412069e-02 2.8327585315567422e-02 -5.5757499799616184e-03  9.5481552483745638e-02 3.3767865320318100e-02 -5.5986176988750266e-03  1.0776929173075055e-01 3.3678710847566060e-02 1.1967047525676021e-04  1.0772217930583035e-01 2.8196267197088433e-02 1.2003780877057932e-04  1.0778792085361627e-01 2.8189072380561505e-02 -5.5483648546729549e-03  1.0784219992332725e-01 3.3672331150497857e-02 -5.5546420803900595e-03  1.2016230622534367e-01 3.3613233144474917e-02 1.3178119376526743e-04  1.2012325013693184e-01 2.8117062126312476e-02 1.2948844814940656e-04  1.2018014378655678e-01 2.8122386694235085e-02 -5.5387204750900199e-03  1.2022666732717593e-01 3.3622197075591193e-02 -5.5295808768034294e-03  1.3256350316465754e-01 3.3600334088330887e-02 1.3476863370657439e-04  1.3254077826125066e-01 2.8126960685007221e-02 1.3811354866755674e-04  1.3259025707071995e-01 2.8140523589131595e-02 -5.5776644786047032e-03  1.3262012767501194e-01 3.3620423189404600e-02 -5.5716463035322406e-03  6.9928974928268509e-02 2.3308117029106911e-02 1.1001637947491551e-04  7.0061451003112257e-02 2.3245886540520025e-02 -5.6132091489585357e-03  5.7345157862684230e-02 2.3497371259548247e-02 1.1235691832866565e-04  5.7507465994393846e-02 2.3406634794930818e-02 -5.5581922199539032e-03  8.2499658075716006e-02 2.3062787322648486e-02 1.1133721043629566e-04  8.2602905443375133e-02 2.3023901894834643e-02 -5.6069469548298643e-03  9.5024408917325942e-02 2.2840262725056834e-02 1.1516680990911810e-04  9.5104194363765326e-02 2.2819352822448846e-02 -5.5774085547493904e-03  1.0750502409573851e-01 2.2677347906706672e-02 1.2017433912790735e-04  1.0756824451536109e-01 2.2669954088942661e-02 -5.5487585324959674e-03  1.1995924219079580e-01 2.2595469837553412e-02 1.2877205179144568e-04  1.2001313002263424e-01 2.2598165380832914e-02 -5.5365670937915215e-03  1.3242355761115815e-01 2.2635217424047199e-02 1.3542371218282014e-04  1.3246822405353531e-01 2.2643608557288430e-02 -5.5717915135412577e-03  6.9175956087752885e-02 1.7640036843548913e-02 1.0786390721438048e-04  6.9314539380194468e-02 1.7590406715280053e-02 -5.6665087499732578e-03  5.6316216379987537e-02 1.7769284087243254e-02 1.0987394339475092e-04  5.6487095622020561e-02 1.7697325246179101e-02 -5.6384901087692466e-03  8.1960300461444660e-02 1.7438789870195738e-02 1.0954005566163472e-04  8.2067357169065908e-02 1.7407589999304477e-02 -5.6393540012230972e-03  9.4633873527067425e-02 1.7246404755773836e-02 1.1364299009691986e-04  9.4715745226800582e-02 1.7229403862000232e-02 -5.5944711507638937e-03  1.0721212127713584e-01 1.7101299022337653e-02 1.1881472264989806e-04  1.0727611855502649e-01 1.7094845137581083e-02 -5.5546377438122924e-03  1.1972735351835784e-01 1.7031058841279263e-02 1.2764889781769606e-04  1.1978088899381319e-01 1.7032205716753884e-02 -5.5338000412380513e-03  1.3224512977570213e-01 1.7085088713091418e-02 1.3448266009524098e-04  1.3228795878534236e-01 1.7089872338778480e-02 -5.5630851600039994e-03  6.8511441876020915e-02 1.1849287467132354e-02 1.0522663244327359e-04  6.8656897730002761e-02 1.1814612425933886e-02 -5.7275724244566697e-03  5.5449484813511814e-02 1.1918166621152337e-02 1.0657329710528811e-04  5.5629444103635163e-02 1.1868173570714057e-02 -5.7280412238637068e-03  8.1464584994005662e-02 1.1714449957679446e-02 1.0749115988782693e-04  8.1576357119906073e-02 1.1692522349953874e-02 -5.6774341662685791e-03  9.4263288342224513e-02 1.1577708695008893e-02 1.1210930047271566e-04  9.4348130827505164e-02 1.1565653791442591e-02 -5.6151010133449926e-03  1.0692557495328572e-01 1.1471984642055450e-02 1.1767215395105828e-04  1.0699119877405383e-01 1.1467271759558917e-02 -5.5624509745626719e-03  1.1949434684533093e-01 1.1423893712898000e-02 1.2699526205591497e-04  1.1954852524501183e-01 1.1424349711570844e-02 -5.5323533702912346e-03  1.3206225440843911e-01 1.1476524120950326e-02 1.3399884889349681e-04  1.3210455936171753e-01 1.1479291286908293e-02 -5.5570117400652033e-03  6.8067375797907906e-02 5.9890962171861911e-03 1.0153204322354169e-04  6.8218059203005943e-02 5.9707151419004043e-03 -5.7745499735219292e-03  5.4887561462386499e-02 6.0156210581630704e-03 1.0171781623913961e-04  5.5074199185791733e-02 5.9891228862339850e-03 -5.7958358738606610e-03  8.1123742245326314e-02 5.9245148488335283e-03 1.0483184844728567e-04  8.1239277780107436e-02 5.9129073539564807e-03 -5.7071490653125799e-03  9.4002672394624592e-02 5.8565591241228673e-03 1.1032644832255436e-04  9.4089995571137050e-02 5.8502196936155177e-03 -5.6314889746342071e-03  1.0671943596449682e-01 5.8039337730069205e-03 1.1658965496409457e-04  1.0678655875826139e-01 5.8015413338416370e-03 -5.5689734417499349e-03  1.1932406176924901e-01 5.7841364203493582e-03 1.2651181619987897e-04  1.1937902611720007e-01 5.7844491383564605e-03 -5.5320314524729538e-03  1.3192699770223407e-01 5.8189903524365370e-03 1.3375343825619765e-04  1.3196931646130308e-01 5.8204845900566779e-03 -5.5536246252090435e-03  6.7910827566008372e-02 9.8571616261172940e-05 9.8571616261265192e-05  6.8063617288587286e-02 9.6931189538253796e-05 -5.7928306508880116e-03  5.4692492737884249e-02 9.7579556586067757e-05 9.7579556586150075e-05  5.4881856385468553e-02 9.4915138855158784e-05 -5.8222745355147572e-03  8.1001271311287565e-02 1.0286117418935674e-04 1.0286117418924116e-04  8.1118342586866315e-02 1.0199270157372286e-04 -5.7186459387530801e-03  9.3907153290414741e-02 1.0916273297545297e-04 1.0916273297547744e-04  9.3995473446598532e-02 1.0887121185150755e-04 -5.6377442432688088e-03  1.0664181663807452e-01 1.1607752311296430e-04 1.1607752311299458e-04  1.0670954885308326e-01 1.1625107685965161e-04 -5.5713206674042597e-03  1.1925913611942250e-01 1.2643554430323827e-04 1.2643554430328584e-04  1.1931439872020343e-01 1.2681071492057748e-04 -5.5318154632600907e-03  1.3187451321962554e-01 1.3390809217744587e-04 1.3390809217761509e-04  1.3191683535300749e-01 1.3444426531126862e-04 -5.5522391670784037e-03  6.8063617288587272e-02 -5.7928306508878320e-03 9.6931189538274220e-05  6.8214998133595744e-02 -5.7776403034264182e-03 -5.7776403034264130e-03  5.4881856385468566e-02 -5.8222745355146991e-03 9.4915138854992468e-05  5.5069584830003168e-02 -5.8010125614322483e-03 -5.8010125614320601e-03  8.1118342586866288e-02 -5.7186459387531755e-03 1.0199270157366732e-04  8.1234356644860603e-02 -5.7086991479214566e-03 -5.7086991479214800e-03  9.3995473446598421e-02 -5.6377442432688340e-03 1.0887121185150123e-04  9.4083020807806478e-02 -5.6319457030261600e-03 -5.6319457030261540e-03  1.0670954885308313e-01 -5.5713206674042354e-03 1.1625107685968894e-04  1.0677677829803825e-01 -5.5685677092020556e-03 -5.5685677092021518e-03  1.1931439872020341e-01 -5.5318154632600187e-03 1.2681071492065015e-04  1.1936927947857112e-01 -5.5313472707120377e-03 -5.5313472707120550e-03  1.3191683535300738e-01 -5.5522391670779500e-03 1.3444426531122663e-04  1.3195897946675134e-01 -5.5526200776734418e-03 -5.5526200776735528e-03  6.8505206462851409e-02 -1.1654280342712204e-02 9.7331205031793295e-05  6.8651881135253320e-02 -1.1622614076129540e-02 -5.7329598525173919e-03  5.5439444365167130e-02 -1.1730485781095857e-02 9.4717373973702098e-05  5.5621416940772994e-02 -1.1685560628233079e-02 -5.7371333548829348e-03  8.1453805678439878e-02 -1.1507752004590185e-02 1.0269237922314555e-04  8.1566366190915715e-02 -1.1487326404117515e-02 -5.6801218040679474e-03  9.4248476388871474e-02 -1.1357299798736092e-02 1.0972922761254535e-04  9.4333660524588386e-02 -1.1345654055513266e-02 -5.6158493469120772e-03  1.0690565276029622e-01 -1.1237907037494032e-02 1.1723019873269104e-04  1.0697137113129528e-01 -1.1232724179552105e-02 -5.5616667764316757e-03  1.1947449586876636e-01 -1.1173119560171006e-02 1.2768417001696151e-04  1.1952838250730793e-01 -1.1172645279907804e-02 -5.5310078576351566e-03  1.3204128755730679e-01 -1.1212608364962452e-02 1.3537928231209246e-04  1.3208315177170074e-01 -1.1214109226435769e-02 -5.5550497479893131e-03  6.9165910990484733e-02 -1.7443888145514314e-02 1.0006146741208198e-04  6.9305632802985961e-02 -1.7396780226837869e-02 -5.6721537046393912e-03  5.6304099613122757e-02 -1.7587231882794273e-02 9.7648786334629704e-05  5.6477235718172356e-02 -1.7519665202540703e-02 -5.6483441161672455e-03  8.1942403560820484e-02 -1.7229228110130303e-02 1.0497734487332094e-04  8.2050042565684544e-02 -1.7199194437874720e-02 -5.6420934389732622e-03  9.4609532649782294e-02 -1.7022948541122546e-02 1.1157033774065016e-04  9.4691531434671253e-02 -1.7006134152744705e-02 -5.5951056491782567e-03  1.0718118296586730e-01 -1.6864514568703741e-02 1.1870621798230758e-04  1.0724501117003737e-01 -1.6857475505162145e-02 -5.5536249355644324e-03  1.1969585659365056e-01 -1.6781849301956239e-02 1.2887186423257241e-04  1.1974879366065284e-01 -1.6781857625843447e-02 -5.5319010903994636e-03  1.3221222589292436e-01 -1.6825151176026631e-02 1.3663238287784542e-04  1.3225418950572931e-01 -1.6828398436824692e-02 -5.5602140798821365e-03  6.9912760162159707e-02 -2.3107631673387748e-02 1.0518679115037440e-04  7.0045717801225149e-02 -2.3047348277185926e-02 -5.6177727933806182e-03  5.7336459310284374e-02 -2.3315458877578868e-02 1.0405098192615384e-04  5.7500353139043697e-02 -2.3228164873607168e-02 -5.5662334193994807e-03  8.2472094740818000e-02 -2.2847917171057653e-02 1.0879889264533839e-04  8.2575356908005576e-02 -2.2809842631176708e-02 -5.6092192100314318e-03  9.4988479492389796e-02 -2.2612508362782738e-02 1.1435452338741653e-04  9.5067976387271491e-02 -2.2591528395699067e-02 -5.5779400161591712e-03  1.0746291717176738e-01 -2.2437164811971166e-02 1.2075010020041216e-04  1.0752545237072622e-01 -2.2428832009547612e-02 -5.5478297252984018e-03  1.1991575350483885e-01 -2.2348249628875466e-02 1.3053458923470234e-04  1.1996828699636634e-01 -2.2349242491296842e-02 -5.5342792088303961e-03  1.3237834675336235e-01 -2.2378443067373223e-02 1.3798329032991381e-04  1.3242135607114600e-01 -2.2384461863010966e-02 -5.5683089060250017e-03  7.0531666944991731e-02 -2.8588392316907761e-02 1.1279121978653576e-04  7.0662213626859233e-02 -2.8519184839336104e-02 -5.6024480613116930e-03  5.8269493020848176e-02 -2.8805139212565566e-02 1.1537387678553108e-04  5.8428320299344430e-02 -2.8704201464020428e-02 -5.5381264815985570e-03  8.2881805384828353e-02 -2.8337149061574238e-02 1.1354925980914433e-04  8.2984344544221544e-02 -2.8293795632132798e-02 -5.6021447069070657e-03  9.5266556126470572e-02 -2.8115101866325133e-02 1.1682070539485129e-04  9.5346342684799010e-02 -2.8091752043137248e-02 -5.5760893187202119e-03  1.0772484158266557e-01 -2.7943793451293403e-02 -5.5494358292148566e-03  1.2011622352021169e-01 -2.7872757583217583e-02 -5.5390930419235403e-03  1.3252882123629761e-01 -2.7885419310158217e-02 -5.5777323096534654e-03  7.0740806908543161e-02 -3.3872230964716164e-02 1.1722894123713828e-04  7.0882796854106325e-02 -3.3802204203334962e-02 -5.6706435009529670e-03  5.8689203044101669e-02 -3.3985999527383536e-02 1.2160035572374019e-04  5.8860804871894483e-02 -3.3883721110374715e-02 -5.6356853286807090e-03  8.2981548960457369e-02 -3.3708464125244933e-02 1.1620535220126681e-04  8.3093826130304291e-02 -3.3664629571060499e-02 -5.6455356754814973e-03  9.5317000565817919e-02 -3.3553087380769731e-02 1.1812806375994797e-04  9.5404771615820533e-02 -3.3529692436969537e-02 -5.5995050754394874e-03  1.0776621827379788e-01 -3.3426794347093183e-02 -5.5565335856712413e-03  7.1094523277215507e-02 2.8549842166560532e-02 -1.1273401331262920e-02  7.1370944973508932e-02 3.3835494081996251e-02 -1.1391566719288225e-02  5.9428724641575677e-02 3.3813829899633788e-02 -1.1329189477942215e-02  5.8937553772011209e-02 2.8630848338891485e-02 -1.1156024084738586e-02  8.3341569427871395e-02 2.8407233204430404e-02 -1.1276822031336590e-02  8.3498893486722722e-02 3.3780114748841988e-02 -1.1349965619170174e-02  9.5642783467165080e-02 2.8269659116592068e-02 -1.1236444478760639e-02  9.5741951945655976e-02 3.3709717719736187e-02 -1.1274057705817695e-02  1.0797950098648254e-01 2.8173113448161917e-02 -1.1196361358789497e-02  1.0805346524978092e-01 3.3658850174977009e-02 -1.1206029899768275e-02  1.2034656840270692e-01 2.8139032022316816e-02 -1.1190419867929969e-02  1.2041273426173317e-01 3.3648435560084837e-02 -1.1176829312654546e-02  1.3273645626358491e-01 2.8179510191466198e-02 -1.1267983338785124e-02  1.3278753256965953e-01 3.3677170327618994e-02 -1.1254639002623069e-02  7.0449074790863861e-02 2.3083654479386824e-02 -1.1306730261822965e-02  5.7991260194032404e-02 2.3165403305296241e-02 -1.1212947287375985e-02  8.2902976818652011e-02 2.2924525513990001e-02 -1.1294586715605071e-02  9.5336386276751173e-02 2.2767512074042626e-02 -1.1244485941572201e-02  1.0775424062431556e-01 2.2653424276257505e-02 -1.1198313849571446e-02  1.2017182891018291e-01 2.2607218467562942e-02 -1.1185636631727584e-02  1.3260145470526466e-01 2.2667174695354668e-02 -1.1253894252495084e-02  6.9719089494304609e-02 1.7462833825138944e-02 -1.1413201089911765e-02  5.6995635520723648e-02 1.7509052900457324e-02 -1.1375697919444115e-02  8.2377616340551976e-02 1.7328860658995825e-02 -1.1358289279362702e-02  9.4953162552620332e-02 1.7187704976927190e-02 -1.1277206724054524e-02  1.0746370314226916e-01 1.7080336250841363e-02 -1.1208701108088729e-02  1.1993794685554200e-01 1.7036729094699856e-02 -1.1179234043108846e-02  1.3241536503696036e-01 1.7103989245339200e-02 -1.1236138164794511e-02  6.9080122108488282e-02 1.1727477924403462e-02 -1.1532107394034978e-02  5.6163175938410595e-02 1.1740493965165959e-02 -1.1552073247612748e-02  8.1899072792821104e-02 1.1638415279212668e-02 -1.1431515477717034e-02  9.4593074498737190e-02 1.1536751620620556e-02 -1.1316172529368416e-02  1.0718267048747031e-01 1.1456877121137833e-02 -1.1222671571633187e-02  1.1970665895863471e-01 1.1426714189950319e-02 -1.1175475182717658e-02  1.3222984903144458e-01 1.1487627088523886e-02 -1.1223221198625070e-02  6.8654776327930281e-02 5.9268595420677453e-03 -1.1621238434124747e-02  5.5625453318297408e-02 5.9249051569487650e-03 -1.1682169022883803e-02  8.1571363966254848e-02 5.8857326283546967e-03 -1.1487210034722842e-02  9.4340879466416519e-02 5.8358271494069122e-03 -1.1346328711294417e-02  1.0698144464300463e-01 5.7965690416166699e-03 -1.1234026692001478e-02  1.1953865497142614e-01 5.7858593082153386e-03 -1.1173901560734650e-02  1.3209402630197176e-01 5.8247981032686948e-03 -1.1215573427345797e-02  6.8505206462851395e-02 9.7331205031796154e-05 -1.1654280342712021e-02  5.5439444365167199e-02 9.4717373973741942e-05 -1.1730485781095906e-02  8.1453805678439836e-02 1.0269237922325719e-04 -1.1507752004590203e-02  9.4248476388871585e-02 1.0972922761245278e-04 -1.1357299798736200e-02  1.0690565276029612e-01 1.1723019873270922e-04 -1.1237907037494183e-02  1.1947449586876653e-01 1.2768417001688862e-04 -1.1173119560171056e-02  1.3204128755730687e-01 1.3537928231205024e-04 -1.1212608364962181e-02  6.8651881135253168e-02 -5.7329598525174595e-03 -1.1622614076129559e-02  5.5621416940773043e-02 -5.7371333548828880e-03 -1.1685560628233201e-02  8.1566366190915729e-02 -5.6801218040680368e-03 -1.1487326404117502e-02  9.4333660524588234e-02 -5.6158493469120451e-03 -1.1345654055513322e-02  1.0697137113129532e-01 -5.5616667764317399e-03 -1.1232724179552105e-02  1.1952838250730805e-01 -5.5310078576350308e-03 -1.1172645279907915e-02  1.3208315177170102e-01 -5.5550497479888977e-03 -1.1214109226435870e-02  6.9075323055660345e-02 -1.1534629217465949e-02 -1.1534629217466093e-02  5.6156170843202340e-02 -1.1558146377301076e-02 -1.1558146377300963e-02  8.1888871871256153e-02 -1.1431837869310743e-02 -1.1431837869310880e-02  9.4578101064716993e-02 -1.1315082426236685e-02 -1.1315082426236692e-02  1.0716221720147308e-01 -1.1220438605062744e-02 -1.1220438605062987e-02  1.1968544747204135e-01 -1.1173200218376953e-02 -1.1173200218377021e-02  1.3220735475731085e-01 -1.1220482081090492e-02 -1.1220482081090223e-02  6.9710150571667323e-02 -1.7268295178766331e-02 -1.1416382187337894e-02  5.6986822194357925e-02 -1.7331467227845808e-02 -1.1383026901038066e-02  8.2359769820103054e-02 -1.7119095221190025e-02 -1.1358959980634411e-02  9.4928111850428529e-02 -1.6962818544437024e-02 -1.1276215576718585e-02  1.0743157469298638e-01 -1.6841166983204987e-02 -1.1206352283903721e-02  1.1990433512492223e-01 -1.6784498968428471e-02 -1.1176438235744783e-02  1.3237994723947974e-01 -1.6840349660625659e-02 -1.1232459498348295e-02  7.0432875365300060e-02 -2.2884411704968979e-02 -1.1310981987841747e-02  5.7984613055992860e-02 -2.2987068921708497e-02 -1.1221069191412806e-02  8.2874562372346999e-02 -2.2709281985713536e-02 -1.1296434154623416e-02  9.5299079372245896e-02 -2.2538157213428622e-02 -1.1244602140269351e-02  1.0770997591797067e-01 -2.2410271450771881e-02 -1.1196881712533727e-02  1.2012468493355212e-01 -2.2355804562027830e-02 -1.1182817252797444e-02  1.3255198732723641e-01 -2.2405101272429381e-02 -1.1249636862346524e-02  7.1046606589076175e-02 -2.8333297177388504e-02 -1.1280084733893286e-02  5.8903248046752336e-02 -2.8427276902281612e-02 -1.1164131431136443e-02  8.3284816040404844e-02 -2.8179977273160298e-02 -1.1282148569607825e-02  9.5580892373998666e-02 -2.8032694248711274e-02 -1.1240574160154010e-02  1.0791428293705137e-01 -2.7926022514614183e-02 -1.1199597787495812e-02  1.2028000827649911e-01 -2.7887062155785954e-02 -1.1191450968847355e-02  1.3267164321521388e-01 -2.7920498068518842e-02 -1.1267351830689956e-02  7.1302249824568231e-02 -3.3613844139104267e-02 -1.1400422991677555e-02  5.9374861670622184e-02 -3.3603389423454672e-02 -1.1338562725290470e-02  8.3423391473192179e-02 -3.3549322087535915e-02 -1.1357895972589948e-02  9.5662779711313484e-02 -3.3470553860628381e-02 -1.1281097495109162e-02  1.0797558521341510e-01 -3.3411660225660202e-02 -1.1212001133545131e-02  7.1676809580119141e-02 2.8296577189317919e-02 -1.6864436157473746e-02  7.2004218885591262e-02 3.3574012362025479e-02 -1.6991637847457174e-02  6.0231337712285907e-02 3.3414215176725548e-02 -1.6890987433482236e-02  5.9680637685669093e-02 2.8242521243768162e-02 -1.6701469987577492e-02  8.3786262491531344e-02 2.8256663553734979e-02 -1.6882202849330018e-02  8.3984546127470042e-02 3.3624293032802080e-02 -1.6959897183318352e-02  9.5984457094446640e-02 2.8194828047040644e-02 -1.6844663858888879e-02  9.6116367096834049e-02 3.3632839315857622e-02 -1.6884327705991471e-02  1.0825331729208261e-01 2.8154894610714316e-02 -1.6807143225371798e-02  1.0835419588415679e-01 3.3643167483697944e-02 -1.6816990612914751e-02  1.2058250957128495e-01 2.8163841910916847e-02 -1.6812208680955849e-02  1.2067576389132574e-01 3.3685504663508059e-02 -1.6798830027593362e-02  1.3294437825240296e-01 2.8234749776258224e-02 -1.6912884554137916e-02  1.3302583756380648e-01 3.3756098759413822e-02 -1.6897142870313065e-02  7.1035183851480693e-02 2.2866257637986404e-02 -1.69348