<?xml version="1.0"?>
<VTKFile type="UnstructuredGrid"  version="0.1"  >
<UnstructuredGrid>
<Piece  NumberOfPoints="649" NumberOfCells="2627">
<Points>
<DataArray  type="Float64"  NumberOfComponents="3"  format="ascii">0.5 0 0  0.5833333333333334 0 0  0.5833333333333334 0.08333333333333333 0  0.5833333333333334 0.08333333333333333 0.08333333333333333  0.5833333333333334 0 0.08333333333333333  0.5 0 0.08333333333333333  0.5 0.08333333333333333 0  0.5 0.08333333333333333 0.08333333333333333  0.6666666666666666 0 0  0.6666666666666666 0.08333333333333333 0  0.6666666666666666 0.08333333333333333 0.08333333333333333  0.6666666666666666 0 0.08333333333333333  0.75 0 0  0.75 0.08333333333333333 0  0.75 0.08333333333333333 0.08333333333333333  0.75 0 0.08333333333333333  0.8333333333333334 0 0  0.8333333333333334 0.08333333333333333 0  0.8333333333333334 0.08333333333333333 0.08333333333333333  0.8333333333333334 0 0.08333333333333333  0.9166666666666666 0 0  0.9166666666666666 0.08333333333333333 0  0.9166666666666666 0.08333333333333333 0.08333333333333333  0.9166666666666666 0 0.08333333333333333  1 0 0  1 0.08333333333333333 0  1 0.08333333333333333 0.08333333333333333  1 0 0.08333333333333333  0.5833333333333334 0.1666666666666667 0  0.5833333333333334 0.1666666666666667 0.08333333333333333  0.5 0.1666666666666667 0  0.5 0.1666666666666667 0.08333333333333333  0.6666666666666666 0.1666666666666667 0  0.6666666666666666 0.1666666666666667 0.08333333333333333  0.75 0.1666666666666667 0  0.75 0.1666666666666667 0.08333333333333333  0.8333333333333334 0.1666666666666667 0  0.8333333333333334 0.1666666666666667 0.08333333333333333  0.9166666666666666 0.1666666666666667 0  0.9166666666666666 0.1666666666666667 0.08333333333333333  1 0.1666666666666667 0  1 0.1666666666666667 0.08333333333333333  0.5833333333333334 0.25 0  0.5833333333333334 0.25 0.08333333333333333  0.5 0.25 0  0.5 0.25 0.08333333333333333  0.6666666666666666 0.25 0  0.6666666666666666 0.25 0.08333333333333333  0.75 0.25 0  0.75 0.25 0.08333333333333333  0.8333333333333334 0.25 0  0.8333333333333334 0.25 0.08333333333333333  0.9166666666666666 0.25 0  0.9166666666666666 0.25 0.08333333333333333  1 0.25 0  1 0.25 0.08333333333333333  0.5833333333333334 0.3333333333333333 0  0.5833333333333334 0.3333333333333333 0.08333333333333333  0.5 0.3333333333333333 0  0.5 0.3333333333333333 0.08333333333333333  0.6666666666666666 0.3333333333333333 0  0.6666666666666666 0.3333333333333333 0.08333333333333333  0.75 0.3333333333333333 0  0.75 0.3333333333333333 0.08333333333333333  0.8333333333333334 0.3333333333333333 0  0.8333333333333334 0.3333333333333333 0.08333333333333333  0.9166666666666666 0.3333333333333333 0  0.9166666666666666 0.3333333333333333 0.08333333333333333  1 0.3333333333333333 0  1 0.3333333333333333 0.08333333333333333  0.5833333333333334 0.4166666666666667 0  0.5833333333333334 0.4166666666666667 0.08333333333333333  0.5 0.4166666666666667 0  0.5 0.4166666666666667 0.08333333333333333  0.6666666666666666 0.4166666666666667 0  0.6666666666666666 0.4166666666666667 0.08333333333333333  0.75 0.4166666666666667 0  0.75 0.4166666666666667 0.08333333333333333  0.8333333333333334 0.4166666666666667 0  0.8333333333333334 0.4166666666666667 0.08333333333333333  0.9166666666666666 0.4166666666666667 0  0.9166666666666666 0.4166666666666667 0.08333333333333333  1 0.4166666666666667 0  1 0.4166666666666667 0.08333333333333333  0.5833333333333334 0.5 0  0.5833333333333334 0.5 0.08333333333333333  0.5 0.5 0  0.5 0.5 0.08333333333333333  0.6666666666666666 0.5 0  0.6666666666666666 0.5 0.08333333333333333  0.75 0.5 0  0.75 0.5 0.08333333333333333  0.8333333333333334 0.5 0  0.8333333333333334 0.5 0.08333333333333333  0.9166666666666666 0.5 0  0.9166666666666666 0.5 0.08333333333333333  1 0.5 0  1 0.5 0.08333333333333333  0.5833333333333334 0.5833333333333334 0  0.5833333333333334 0.5833333333333334 0.08333333333333333  0.5 0.5833333333333334 0  0.5 0.5833333333333334 0.08333333333333333  0.6666666666666666 0.5833333333333334 0  0.6666666666666666 0.5833333333333334 0.08333333333333333  0.75 0.5833333333333334 0  0.75 0.5833333333333334 0.08333333333333333  0.8333333333333334 0.5833333333333334 0  0.8333333333333334 0.5833333333333334 0.08333333333333333  0.9166666666666666 0.5833333333333334 0  0.9166666666666666 0.5833333333333334 0.08333333333333333  1 0.5833333333333334 0  1 0.5833333333333334 0.08333333333333333  0.5833333333333334 0.6666666666666666 0  0.5833333333333334 0.6666666666666666 0.08333333333333333  0.5 0.6666666666666666 0  0.5 0.6666666666666666 0.08333333333333333  0.6666666666666666 0.6666666666666666 0  0.6666666666666666 0.6666666666666666 0.08333333333333333  0.75 0.6666666666666666 0  0.75 0.6666666666666666 0.08333333333333333  0.8333333333333334 0.6666666666666666 0  0.8333333333333334 0.6666666666666666 0.08333333333333333  0.9166666666666666 0.6666666666666666 0  0.9166666666666666 0.6666666666666666 0.08333333333333333  1 0.6666666666666666 0  1 0.6666666666666666 0.08333333333333333  0.5833333333333334 0.75 0  0.5833333333333334 0.75 0.08333333333333333  0.5 0.75 0  0.5 0.75 0.08333333333333333  0.6666666666666666 0.75 0  0.6666666666666666 0.75 0.08333333333333333  0.75 0.75 0  0.75 0.75 0.08333333333333333  0.8333333333333334 0.75 0  0.8333333333333334 0.75 0.08333333333333333  0.9166666666666666 0.75 0  0.9166666666666666 0.75 0.08333333333333333  1 0.75 0  1 0.75 0.08333333333333333  0.5833333333333334 0.8333333333333334 0  0.5833333333333334 0.8333333333333334 0.08333333333333333  0.5 0.8333333333333334 0  0.5 0.8333333333333334 0.08333333333333333  0.6666666666666666 0.8333333333333334 0  0.6666666666666666 0.8333333333333334 0.08333333333333333  0.75 0.8333333333333334 0  0.75 0.8333333333333334 0.08333333333333333  0.8333333333333334 0.8333333333333334 0  0.8333333333333334 0.8333333333333334 0.08333333333333333  0.9166666666666666 0.8333333333333334 0  0.9166666666666666 0.8333333333333334 0.08333333333333333  1 0.8333333333333334 0  1 0.8333333333333334 0.08333333333333333  0.5833333333333334 0.9166666666666666 0  0.5833333333333334 0.9166666666666666 0.08333333333333333  0.5 0.9166666666666666 0  0.5 0.9166666666666666 0.08333333333333333  0.6666666666666666 0.9166666666666666 0  0.6666666666666666 0.9166666666666666 0.08333333333333333  0.75 0.9166666666666666 0  0.75 0.9166666666666666 0.08333333333333333  0.8333333333333334 0.9166666666666666 0  0.8333333333333334 0.9166666666666666 0.08333333333333333  0.9166666666666666 0.9166666666666666 0  0.9166666666666666 0.9166666666666666 0.08333333333333333  1 0.9166666666666666 0  1 0.9166666666666666 0.08333333333333333  0.5833333333333334 1 0  0.5833333333333334 1 0.08333333333333333  0.5 1 0  0.5 1 0.08333333333333333  0.6666666666666666 1 0  0.6666666666666666 1 0.08333333333333333  0.75 1 0  0.75 1 0.08333333333333333  0.8333333333333334 1 0  0.8333333333333334 1 0.08333333333333333  0.9166666666666666 1 0  0.9166666666666666 1 0.08333333333333333  1 1 0  1 1 0.08333333333333333  0.5833333333333334 0.08333333333333333 0.1666666666666667  0.5833333333333334 0 0.1666666666666667  0.5 0 0.1666666666666667  0.5 0.08333333333333333 0.1666666666666667  0.6666666666666666 0.08333333333333333 0.1666666666666667  0.6666666666666666 0 0.1666666666666667  0.75 0.08333333333333333 0.1666666666666667  0.75 0 0.1666666666666667  0.8333333333333334 0.08333333333333333 0.1666666666666667  0.8333333333333334 0 0.1666666666666667  0.9166666666666666 0.08333333333333333 0.1666666666666667  0.9166666666666666 0 0.1666666666666667  1 0.08333333333333333 0.1666666666666667  1 0 0.1666666666666667  0.5833333333333334 0.1666666666666667 0.1666666666666667  0.5 0.1666666666666667 0.1666666666666667  0.6666666666666666 0.1666666666666667 0.1666666666666667  0.75 0.1666666666666667 0.1666666666666667  0.8333333333333334 0.1666666666666667 0.1666666666666667  0.9166666666666666 0.1666666666666667 0.1666666666666667  1 0.1666666666666667 0.1666666666666667  0.5833333333333334 0.25 0.1666666666666667  0.5 0.25 0.1666666666666667  0.6666666666666666 0.25 0.1666666666666667  0.75 0.25 0.1666666666666667  0.8333333333333334 0.25 0.1666666666666667  0.9166666666666666 0.25 0.1666666666666667  1 0.25 0.1666666666666667  0.5833333333333334 0.3333333333333333 0.1666666666666667  0.5 0.3333333333333333 0.1666666666666667  0.6666666666666666 0.3333333333333333 0.1666666666666667  0.75 0.3333333333333333 0.1666666666666667  0.8333333333333334 0.3333333333333333 0.1666666666666667  0.9166666666666666 0.3333333333333333 0.1666666666666667  1 0.3333333333333333 0.1666666666666667  0.5833333333333334 0.4166666666666667 0.1666666666666667  0.5 0.4166666666666667 0.1666666666666667  0.6666666666666666 0.4166666666666667 0.1666666666666667  0.75 0.4166666666666667 0.1666666666666667  0.8333333333333334 0.4166666666666667 0.1666666666666667  0.9166666666666666 0.4166666666666667 0.1666666666666667  1 0.4166666666666667 0.1666666666666667  0.5833333333333334 0.5 0.1666666666666667  0.5 0.5 0.1666666666666667  0.6666666666666666 0.5 0.1666666666666667  0.75 0.5 0.1666666666666667  0.8333333333333334 0.5 0.1666666666666667  0.9166666666666666 0.5 0.1666666666666667  1 0.5 0.1666666666666667  0.5833333333333334 0.5833333333333334 0.1666666666666667  0.5 0.5833333333333334 0.1666666666666667  0.6666666666666666 0.5833333333333334 0.1666666666666667  0.75 0.5833333333333334 0.1666666666666667  0.8333333333333334 0.5833333333333334 0.1666666666666667  0.9166666666666666 0.5833333333333334 0.1666666666666667  1 0.5833333333333334 0.1666666666666667  0.5833333333333334 0.6666666666666666 0.1666666666666667  0.5 0.6666666666666666 0.1666666666666667  0.6666666666666666 0.6666666666666666 0.1666666666666667  0.75 0.6666666666666666 0.1666666666666667  0.8333333333333334 0.6666666666666666 0.1666666666666667  0.9166666666666666 0.6666666666666666 0.1666666666666667  1 0.6666666666666666 0.1666666666666667  0.58333333333333
[...]
<PointData  Vectors="f_35"> 
<DataArray  type="Float64"  Name="f_35"  NumberOfComponents="3" format="ascii">6.2915322652176642e-02 3.2628539254969655e-02 3.2628539254969779e-02  7.3916414733104424e-02 3.3092499899939294e-02 3.3092499899939405e-02  7.3443694770109147e-02 2.7942538071256125e-02 3.3136734408851218e-02  7.3016487145579956e-02 2.7916224545228289e-02 2.7916224545228154e-02  7.3443694770109022e-02 3.3136734408851128e-02 2.7942538071256184e-02  6.2182420560090809e-02 3.2707814116451184e-02 2.7655268774550608e-02  6.2182420560090726e-02 2.7655268774550539e-02 3.2707814116451281e-02  6.1507876638424705e-02 2.7620088879824433e-02 2.7620088879824332e-02  8.5356333337964163e-02 3.3355187899016918e-02 3.3355187899017154e-02  8.5045903463939754e-02 2.8062685114891604e-02 3.3377030099469879e-02  8.4769692809354286e-02 2.8044778846824131e-02 2.8044778846824079e-02  8.5045903463939906e-02 3.3377030099469920e-02 2.8062685114891343e-02  9.7138647655328425e-02 3.3512157732406123e-02 3.3512157732406241e-02  9.6919458451222837e-02 2.8109685228585420e-02 3.3519410237750437e-02  9.6727147823670784e-02 2.8099107356275719e-02 2.8099107356275702e-02  9.6919458451222615e-02 3.3519410237750499e-02 2.8109685228585212e-02  1.0916865196866643e-01 3.3628278310735851e-02 3.3628278310735775e-02  1.0899935061011122e-01 2.8145075941328396e-02 3.3627277337538432e-02  1.0884864894083857e-01 2.8140528956600578e-02 2.8140528956600692e-02  1.0899935061011132e-01 3.3627277337538480e-02 2.8145075941328399e-02  1.2138883818141241e-01 3.3747752944445375e-02 3.3747752944445333e-02  1.2123662167342854e-01 2.8206017690071240e-02 3.3745484300269572e-02  1.2109658568471762e-01 2.8208258790317024e-02 2.8208258790317155e-02  1.2123662167342843e-01 3.3745484300269711e-02 2.8206017690071333e-02  1.3368894833661277e-01 3.3878121575110068e-02 3.3878121575110443e-02  1.3354699618451296e-01 2.8325690870553547e-02 3.3877574674746266e-02  1.3341333833150321e-01 2.8325044795711438e-02 2.8325044795711542e-02  1.3354699618451277e-01 3.3877574674746412e-02 2.8325690870553349e-02  7.2754383003511308e-02 2.2666099408664622e-02 3.3322410087654353e-02  7.2373794921313239e-02 2.2570880263934109e-02 2.8063149716934556e-02  6.1214186495434822e-02 2.2496312297833308e-02 3.3014066181570739e-02  6.0598568559500410e-02 2.2353748668074980e-02 2.7868676002871750e-02  8.4554667536014066e-02 2.2688258421580388e-02 3.3480068863081858e-02  8.4314190267859523e-02 2.2629890892714135e-02 2.8123901565433842e-02  9.6559468673265578e-02 2.2656724422605086e-02 3.3565895746270072e-02  9.6394608152408565e-02 2.2626562518432397e-02 2.8133305126438274e-02  1.0872000207102395e-01 2.2629706418099561e-02 3.3634832954281782e-02  1.0859028593806064e-01 2.2621023188112224e-02 2.8144956304311214e-02  1.2099805173851357e-01 2.2643476532346600e-02 3.3724069148359570e-02  1.2087832827263578e-01 2.2653065762115929e-02 2.8192066475781992e-02  1.3332923282609130e-01 2.2760591177848087e-02 3.3835440601444375e-02  1.3321488417261387e-01 2.2767608288612129e-02 2.8293618630047944e-02  7.2014661044794218e-02 1.7214299499886669e-02 3.3587867093690035e-02  7.1689546916852379e-02 1.7085129774251903e-02 2.8310693269066215e-02  6.0238530852543042e-02 1.7108932703364586e-02 3.3432313856341912e-02  5.9690671324724137e-02 1.6917559548953298e-02 2.8261061903786154e-02  8.4001841767742447e-02 1.7189646721562053e-02 3.3634253152685215e-02  8.3804986488806715e-02 1.7110045349010870e-02 2.8266641704602562e-02  9.6140195113263410e-02 1.7122332681189536e-02 3.3639938108389326e-02  9.6009619381526287e-02 1.7081086683240120e-02 2.8201756028832264e-02  1.0838683626491730e-01 1.7064276800684380e-02 3.3649342932338164e-02  1.0828489420294327e-01 1.7053145057305753e-02 2.8159884525349531e-02  1.2070792453029196e-01 1.7054856625604523e-02 3.3688020588928995e-02  1.2061567156371242e-01 1.7067549028596096e-02 2.8166576631901089e-02  1.3306370599880180e-01 1.7163498923005262e-02 3.3758793874898080e-02  1.3297914380830109e-01 1.7178486923631036e-02 2.8237644706475391e-02  7.1377003270273923e-02 1.1603943778477161e-02 3.3846831799601927e-02  7.1102750382260341e-02 1.1487094189806776e-02 2.8562018405948554e-02  5.9434871275048796e-02 1.1536854443721553e-02 3.3827393598463734e-02  5.8946376101404088e-02 1.1366406445316604e-02 2.8645685502326070e-02  8.3508660996710074e-02 1.1570878413873734e-02 3.3788939824784217e-02  8.3352893997114472e-02 1.1498083642901748e-02 2.8416398267809128e-02  9.5756050329178805e-02 1.1505881169138563e-02 3.3716430045423962e-02  9.5658401711948712e-02 1.1467804239836005e-02 2.8276388625111851e-02  1.0807425873057738e-01 1.1449226897339583e-02 3.3664894985457043e-02  1.0799978741011487e-01 1.1439118573002517e-02 2.8178141369907404e-02  1.2043271071498658e-01 1.1436714630644830e-02 3.3650810312521991e-02  1.2036753100343008e-01 1.1447403804192293e-02 2.8141606458916623e-02  1.3281210405055438e-01 1.1522356994230300e-02 3.3679500760911162e-02  1.3275833458367239e-01 1.1538843268711647e-02 2.8181801425892567e-02  7.0951375795984928e-02 5.8809920636636089e-03 3.4029398196075950e-02  7.0712168479033735e-02 5.8137074370864872e-03 2.8741676002903477e-02  5.8914543543604335e-02 5.8461634004475585e-03 3.4100456332565726e-02  5.8465488088813050e-02 5.7491846135766037e-03 2.8914935657993732e-02  8.3171511220657482e-02 5.8619307025910413e-03 3.3899692954341594e-02  8.3044627036577209e-02 5.8196514390220630e-03 2.8525378480728111e-02  9.5488165570487823e-02 5.8260608055752221e-03 3.3771809834076218e-02  9.5413960223431335e-02 5.8037050334292222e-03 2.8331598733453839e-02  1.0785227955309340e-01 5.7949651515177576e-03 3.3675922884998800e-02  1.0779782302763265e-01 5.7891368810213048e-03 2.8192097474486880e-02  1.2023610146767812e-01 5.7921663527830819e-03 3.3623582781567109e-02  1.2019029035755990e-01 5.7971617939556906e-03 2.8123901850367072e-02  1.3263215185237606e-01 5.8406968848334568e-03 3.3621735279230479e-02  1.3260080883206044e-01 5.8524838228062237e-03 2.8141762468478739e-02  7.0801611634216027e-02 1.0211432387322063e-04 3.4092804431085338e-02  7.0574428593493124e-02 1.0417073188928556e-04 2.8804088523080165e-02  5.8734002785552193e-02 1.0049762265813348e-04 3.4195122584487765e-02  5.8298166153592020e-02 1.0364442269426770e-04 2.9008321357243291e-02  8.3050882516745861e-02 1.0659470242633719e-04 3.3938020678788969e-02  8.2934047934067001e-02 1.0781206827929665e-04 2.8563163891255908e-02  9.5390499240980461e-02 1.1297253447275359e-04 3.3790597671342765e-02  9.5324470874025902e-02 1.1339521925172834e-04 2.8350447111010313e-02  1.0776929173075039e-01 1.1967047525678419e-04 3.3678710847565997e-02  1.0772217930583029e-01 1.2003780877053208e-04 2.8196267197088433e-02  1.2016230622534362e-01 1.3178119376529150e-04 3.3613233144474897e-02  1.2012325013693192e-01 1.2948844814938691e-04 2.8117062126312375e-02  1.3256350316465720e-01 1.3476863370685593e-04 3.3600334088331019e-02  1.3254077826125099e-01 1.3811354866767204e-04 2.8126960685007113e-02  7.0948405762881445e-02 -5.6747826214762877e-03 3.4023211347248609e-02  7.0707964426636710e-02 -5.6041306936372038e-03 2.8734814012015022e-02  5.8910586644916406e-02 -5.6436083562106483e-03 3.4093539853399107e-02  5.8460062074750310e-02 -5.5412281658680958e-03 2.8907008385732846e-02  8.3166996651259650e-02 -5.6467951219203363e-03 3.3894672450313225e-02  8.3039196624528688e-02 -5.6026380606649766e-03 2.8520043340123428e-02  9.5481552483745791e-02 -5.5986176988748670e-03 3.3767865320318009e-02  9.5406457179411999e-02 -5.5757499799616644e-03 2.8327585315567356e-02  1.0784219992332728e-01 -5.5546420803899077e-03 3.3672331150497857e-02  1.0778792085361615e-01 -5.5483648546727979e-03 2.8189072380561366e-02  1.2022666732717609e-01 -5.5295808768033583e-03 3.3622197075591248e-02  1.2018014378655685e-01 -5.5387204750899166e-03 2.8122386694235051e-02  1.3262012767501188e-01 -5.5716463035324730e-03 3.3620423189404620e-02  1.3259025707072025e-01 -5.5776644786046962e-03 2.8140523589131456e-02  7.1370944973509085e-02 -1.1391566719288414e-02 3.3835494081996265e-02  7.1094523277215368e-02 -1.1273401331262815e-02 2.8549842166560455e-02  5.9428724641575455e-02 -1.1329189477942269e-02 3.3813829899633788e-02  5.8937553772011146e-02 -1.1156024084738677e-02 2.8630848338891488e-02  8.3498893486722459e-02 -1.1349965619170267e-02 3.3780114748841975e-02  8.3341569427871201e-02 -1.1276822031336542e-02 2.8407233204430317e-02  9.5741951945655837e-02 -1.1274057705817802e-02 3.3709717719736132e-02  9.5642783467165010e-02 -1.1236444478760543e-02 2.8269659116591996e-02  1.0805346524978109e-01 -1.1206029899768379e-02 3.3658850174976974e-02  1.0797950098648240e-01 -1.1196361358789588e-02 2.8173113448161924e-02  1.2041273426173323e-01 -1.1176829312654494e-02 3.3648435560084795e-02  1.2034656840270692e-01 -1.1190419867929902e-02 2.8139032022316761e-02  1.3278753256966006e-01 -1.1254639002623126e-02 3.3677170327619070e-02  1.3273645626358480e-01 -1.1267983338784862e-02 2.8179510191466226e-02  7.2004218885591262e-02 -1.6991637847456997e-02 3.3574012362025431e-02  7.1676809580119238e-02 -1.6864436157473683e-02 2.8296577189317915e-02  6.0231337712285865e-02 -1.6890987433482406e-02 3.3414215176725499e-02  5.9680637685669113e-02 -1.6701469987577419e-02 2.8242521243768078e-02  8.3984546127469778e-02 -1.6959897183318199e-02 3.3624293032802052e-02  8.3786262491531344e-02 -1.6882202849329932e-02 2.8256663553734920e-02  9.6116367096834174e-02 -1.6884327705991322e-02 3.3632839315857629e-02  9.5984457094446890e-02 -1.6844663858888796e-02 2.8194828047040606e-02  1.0835419588415672e-01 -1.6816990612914591e-02 3.3643167483697868e-02  1.0825331729208247e-01 -1.6807143225371642e-02 2.8154894610714302e-02  1.2067576389132574e-01 -1.6798830027593567e-02 3.3685504663508010e-02  1.2058250957128487e-01 -1.6812208680955832e-02 2.8163841910916702e-02  1.3302583756380634e-01 -1.6897142870312524e-02 3.3756098759413704e-02  1.3294437825240296e-01 -1.6912884554137968e-02 2.8234749776258217e-02  7.2736087193418564e-02 -2.2431635069347877e-02 3.3310438800120863e-02  7.2353994735000995e-02 -2.2339717712623951e-02 2.8052664524524096e-02  6.1205206354992825e-02 -2.2265272022964945e-02 3.2995897174041354e-02  6.0588627789408628e-02 -2.2126765662524160e-02 2.7852439099842908e-02  8.4526348708596946e-02 -2.2449097574470396e-02 3.3472538321952676e-02  8.4285173086299792e-02 -2.2393551980196734e-02 2.8117360569205649e-02  9.6523422845890439e-02 -2.2412172202887517e-02 3.3561357194308639e-02  9.6357726253625250e-02 -2.2384024725027669e-02 2.8129370002126213e-02  1.0867535278586214e-01 -2.2376286581746310e-02 3.3631756436845212e-02  1.0854667336153812e-01 -2.2370584275204958e-02 2.8142456075486391e-02  1.2095072431062963e-01 -2.2389223842776137e-02 3.3722646806002302e-02  1.2083149925323289e-01 -2.2398799137109703e-02 2.8190279239353386e-02  1.3327664513836437e-01 -2.2494366861128694e-02 3.3832889213531218e-02  1.3316520309245813e-01 -2.2507084479733899e-02 2.8290899085496708e-02  7.3411226156958498e-02 -2.7694291633731945e-02 3.3135317678281435e-02  7.2981975490815740e-02 -2.7676160779208429e-02 2.7914260669883149e-02  6.2165839599706292e-02 -2.7404784730510053e-02 3.2701325577649883e-02  6.1488990096714817e-02 -2.7381938598948451e-02 2.7614423175059369e-02  8.5001325892772372e-02 -2.7814194061641286e-02 3.3378358532728115e-02  8.4723904564195832e-02 -2.7801880747643171e-02 2.8045175978332459e-02  9.6866919208963606e-02 -2.7859400918887070e-02 3.3522476703151866e-02  9.6673826133954158e-02 -2.7852074006443652e-02 2.8101032817570131e-02  1.0894032405231324e-01 -2.7888374133741348e-02 3.3631013769405860e-02  1.0878932029234838e-01 -2.7887438544491865e-02 2.8143304309317420e-02  1.2117319306240959e-01 -2.7952471944902111e-02 3.3746849888950402e-02  1.2103450312400321e-01 -2.7954295232589365e-02 2.8210668185581815e-02  1.3348428516848970e-01 -2.8060068755926548e-02 3.3878492504594723e-02  1.3335155769894419e-01 -2.8063958488500473e-02 2.8328380614850820e-02  7.3846008236301053e-02 -3.2855050881435074e-02 3.3092985792244324e-02  7.3403514306009721e-02 -3.2892005148308673e-02 2.7948154275525165e-02  6.2857458026987931e-02 -3.2395419418720928e-02 3.2628315535152629e-02  6.2162234349628372e-02 -3.2461709562264178e-02 2.7659322430516241e-02  8.5278454999773712e-02 -3.3113301602056777e-02 3.3356598275334187e-02  8.4992200238271365e-02 -3.3131239878666625e-02 2.8068861213214273e-02  9.7055945018483927e-02 -3.3265372529101146e-02 3.3514490791026218e-02  9.6856982335642439e-02 -3.3271017636582516e-02 2.8116373436747971e-02  1.0909059127932845e-01 -3.3375148429818646e-02 3.3631814313823408e-02  1.0893328943860155e-01 -3.3374071807975400e-02 2.8151024477999904e-02  1.2130776652984603e-01 -3.3491108045495377e-02 3.3750169392858222e-02  1.2116305554837768e-01 -3.3486563406206205e-02 2.8212775807865510e-02  1.3361474919812574e-01 -3.3612015297210383e-02 3.3882322316949993e-02  1.3347945519745652e-01 -3.3614980497612433e-02 2.8327958497318347e-02  7.2373794921313142e-02 2.8063149716934625e-02 2.2570880263934140e-02  7.2754383003511156e-02 3.3322410087654415e-02 2.2666099408664524e-02  6.1214186495434947e-02 3.3014066181570816e-02 2.2496312297833172e-02  6.0598568559500465e-02 2.7868676002871660e-02 2.2353748668075039e-02  8.4314190267859537e-02 2.8123901565433821e-02 2.2629890892714190e-02  8.4554667536014108e-02 3.3480068863081733e-02 2.2688258421580482e-02  9.6394608152408592e-02 2.8133305126438343e-02 2.2626562518432359e-02  9.6559468673265605e-02 3.3565895746270037e-02 2.2656724422605398e-02  1.0859028593806090e-01 2.8144956304311131e-02 2.2621023188112231e-02  1.0872000207102402e-01 3.3634832954281851e-02 2.2629706418099502e-02  1.2087832827263595e-01 2.8192066475782054e-02 2.2653065762115777e-02  1.2099805173851391e-01 3.3724069148359591e-02 2.2643476532346475e-02  1.3321488417261407e-01 2.8293618630048017e-02 2.2767608288612014e-02  1.3332923282609141e-01 3.3835440601444590e-02 2.2760591177848268e-02  7.1742243038656700e-02 2.2678418083716262e-02 2.2678418083716286e-02  5.9691611096590137e-02 2.2536375152427596e-02 2.2536375152427561e-02  8.3873398138473346e-02 2.2687200701652564e-02 2.2687200701652567e-02  9.6077044635358294e-02 2.2651298960745747e-02 2.2651298960745844e-02  1.0834763141010134e-01 2.2624666150013767e-02 2.2624666150013729e-02  1.2067760212397266e-01 2.2640732864017663e-02 2.2640732864017628e-02  1.3303809395433616e-01 2.2740240537564758e-02 2.2740240537564550e-02  7.1055656632780670e-02 1.7154784660387570e-02 2.2884681316216651e-02  5.8768596421914079e-02 1.7035972954394629e-02 2.2859671304253964e-02  8.3369672132447184e-02 1.7146905806549290e-02 2.2806918672306022e-02  9.5701198607776497e-02 1.7097050362419559e-02 2.2709677058076552e-02  1.0805398153170181e-01 1.7055583539457252e-02 2.2639367699763047e-02  1.2043024814353126e-01 1.7058343439465617e-02 2.2623669921053934e-02  1.3282532678811662e-01 1.7155022419125737e-02 2.2701410458232117e-02  7.0463564717561572e-02 1.1526414434501166e-02 2.3099756548006750e-02  5.8008530313940626e-02 1.1433766517131513e-02 2.3186412240098514e-02  8.2919079901510900e-02 1.1518729160454513e-02 2.2935789457011170e-02  9.5355194524937542e-02 1.1476698095413181e-02 2.2774974776470971e-02  1.0777680012422210e-01 1.1440214190650413e-02 2.2658087380553228e-02  1.2019376799485749e-01 1.1440944521665157e-02 2.2608794642594965e-02  1.3262400644558675e-01 1.1520956824044077e-02 2.2666743068066694e-02  7.0069120921010822e-02 5.8330670598421902e-03 2.3254949418554220e-02  5.7517260369835760e-02 5.7820219157906283e-03 2.3418003584939378e-02  8.2611090343506235e-02 5.8299476186622207e-03 2.3030426505933361e-02  9.5113587745419878e-02 5.8082079309128599e-03 2.2823790934029468e-02  1.0757955281437045e-01 5.7895046541156263e-03 2.2672770326122152e-02  1.2002395118923055e-01 5.7935190301004824e-03 2.2599106017811055e-02  1.3247927454505851e-01 5.8416183900564019e-03 2.2643337107841069e-02  6.9928974928268536e-02 1.1001637947494368e-04 2.3308117029106904e-02  5.7345157862684196e-02 1.1235691832870004e-04 2.3497371259548368e-02  8.2499658075715840e-02 1.1133721043638965e-04 2.3062787322648482e-02  9.5024408917325914e-02 1.1516680990927988e-04 2.2840262725056869e-02  1.0750502409573837e-01 1.2017433912804325e-04 2.2677347906706637e-02  1.1995924219079619e-01 1.2877205179149222e-04 2.2595469837553415e-02  1.3242355761115768e-01 1.3542371218293534e-04 2.2635217424047227e-02  7.0061451003112354e-02 -5.6132091489585314e-03 2.3245886540520119e-02  5.7507465994393790e-02 -5.5581922199538511e-03 2.3406634794930756e-02  8.2602905443374980e-02 -5.6069469548298929e-03 2.3023901894834803e-02  9.5104194363765493e-02 -5.5774085547494849e-03 2.2819352822448818e-02  1.0756824451536118e-01 -5.5487585324960750e-03 2.2669954088942672e-02  1.2001313002263418e-01 -5.5365670937914582e-03 2.2598165380832969e-02  1.3246822405353528e-01 -5.5717915135412317e-03 2.2643608557288700e-02  7.0449074790863722e-02 -1.1306730261822846e-02 2.3083654479386817e-02  5.7991260194032467e-02 -1.1212947287376122e-02 2.3165403305296317e-02  8.2902976818652163e-02 -1.1294586715604982e-02 2.2924525513990091e-02  9.5336386276751145e-02 -1.1244485941572136e-02 2.2767512074042602e-02  1.0775424062431556e-01 -1.1198313849571305e-02 2.2653424276257529e-02  1.2017182891018308e-01 -1.1185636631727516e-02 2.2607218467562865e-02  1.3260145470526444e-01 -1.1253894252494923e-02 2.2667174695354772e-02  7.1035183851480790e-02 -1.6934826671256956e-02 2.2866257637986324e-02  5.8747936952142525e-02 -1.6819276044649296e-02 2.2833586829339954e-02  8.3345505895655689e-02 -1.6920737710147314e-02 2.2794706921073445e-02  9.5672538436781779e-02 -1.6862606268441618e-02 2.2702061511874295e-02  1.0802005114123800e-01 -1.6811603442124668e-02 2.2634895672723906e-02  1.2039633738649022e-01 -1.6804943494507767e-02 2.2622150863496823e-02  1.3279061788558710e-01 -1.6891644143976148e-02 2.2701855584074105e-02  7.1716094886156601e-02 -2.2456523950470098e-02 2.2665894016905171e-02  5.9673481201026189e-02 -2.2322182362446041e-02 2.2514796137526202e-02  8.3840665628057698e-02 -2.2457814252311175e-02 2.2679925650648858e-02  9.6038059786492005e-02 -2.2413819282967280e-02 2.2647550005571067e-02  1.0830311915189798e-01 -2.2377650049703504e-02 2.2622870665229590e-02  1.2063145324608403e-01 -2.2388789576885969e-02 2.2640007541644910e-02  1.3298991165342228e-01 -2.2479806658671365e-02 2.2739984612818679e-02  7.2338312902717042e-02 -2.7836387442435693e-02 2.2573877124116560e-02  6.0578960843352583e-02 -2.7650095015181706e-02 2.2353968529438092e-02  8.4268180620035896e-02 -2.7889734944994631e-02 2.2633680979574276e-02  9.6341364819764269e-02 -2.7891924268897760e-02 2.2630821460354836e-02  1.0853168962625290e-01 -2.7895466467707328e-02 2.2625607935954684e-02  1.2081739315864383e-01 -2.7940094863432699e-02 2.2656733865631738e-02  1.3315430172168624e-01 -2.8031706075972017e-02 2.2770774199817850e-02  7.2708039083012224e-02 -3.3093440560168115e-02 2.2682062419518232e-02  6.1193215983396790e-02 -3.2791902324016228e-02 2.2512591242779711e-02  8.4497554445746775e-02 -3.3243632729922035e-02 2.2700655601206036e-02  9.6494522010853526e-02 -3.3323164586261320e-02 2.2667164737961990e-02  1.0865157165779875e-01 -3.3384705249515437e-02 2.2638139847916596e-02  1.2092586393803410e-01 -3.3468226360593566e-02 2.2652149366118784e-02  1.3326218004455825e-01 -3.3576511872674575e-02 2.2760184226376639e-02  7.1689546916852490e-02 2.8310693269066173e-02 1.7085129774251862e-02  7.2014661044794120e-02 3.3587867093690056e-02 1.7214299499886770e-02  6.0238530852543132e-02 3.3432313856341933e-02 1.7108932703364721e-02  5.9690671324724089e-02 2.8261061903786116e-02 1.6917559548953260e-02  8.3804986488806757e-02 2.8266641704602524e-02 1.7110045349010911e-02  8.4001841767742544e-02 3.3634253152685228e-02 1.7189646721562094e-02  9.6009619381526440e-02 2.8201756028832330e-02 1.7081086683240092e-02  9.6140195113263577e-02 3.3639938108389424e-02 1.7122332681189383e-02  1.0828489420294293e-01 2.8159884525349597e-02 1.7053145057305687e-02  1.0838683626491745e-01 3.3