<?xml version="1.0"?>
<VTKFile type="UnstructuredGrid"  version="0.1"  >
<UnstructuredGrid>
<Piece  NumberOfPoints="50" NumberOfCells="70">
<Points>
<DataArray  type="Float64"  NumberOfComponents="3"  format="ascii">0.25 0.3333333333333333 0  0.25 0.4166666666666667 0  0.3333333333333333 0.4166666666666667 0  0.3333333333333333 0.5 0  0.25 0.5 0  0.4166666666666667 0.5 0  0.3333333333333333 0.5833333333333334 0  0.4166666666666667 0.5833333333333334 0  0.5 0.5833333333333334 0  0.4166666666666667 0.6666666666666666 0  0.5 0.6666666666666666 0  0.5833333333333334 0.5833333333333334 0  0.5833333333333334 0.6666666666666666 0  0.6666666666666666 0.6666666666666666 0  0.5 0.75 0  0.4166666666666667 0.75 0  0.5833333333333334 0.75 0  0.6666666666666666 0.75 0  0.75 0.6666666666666666 0  0.75 0.75 0  0.8333333333333334 0.6666666666666666 0  0.8333333333333334 0.75 0  0.9166666666666666 0.6666666666666666 0  0.9166666666666666 0.75 0  1 0.6666666666666666 0  1 0.75 0  0.5 0.8333333333333334 0  0.4166666666666667 0.8333333333333334 0  0.5833333333333334 0.8333333333333334 0  0.6666666666666666 0.8333333333333334 0  0.75 0.8333333333333334 0  0.8333333333333334 0.8333333333333334 0  0.9166666666666666 0.8333333333333334 0  1 0.8333333333333334 0  0.5 0.9166666666666666 0  0.4166666666666667 0.9166666666666666 0  0.5833333333333334 0.9166666666666666 0  0.6666666666666666 0.9166666666666666 0  0.75 0.9166666666666666 0  0.8333333333333334 0.9166666666666666 0  0.9166666666666666 0.9166666666666666 0  1 0.9166666666666666 0  0.5 1 0  0.4166666666666667 1 0  0.5833333333333334 1 0  0.6666666666666666 1 0  0.75 1 0  0.8333333333333334 1 0  0.9166666666666666 1 0  1 1 0  </DataArray>
</Points>
<Cells>
<DataArray  type="UInt32"  Name="connectivity"  format="ascii">0 1 2  1 2 3  1 4 3  2 3 5  4 3 6  3 5 7  3 6 7  5 7 8  6 7 9  7 8 10  7 9 10  8 11 12  8 10 12  11 12 13  9 10 14  9 15 14  10 12 16  10 14 16  12 13 17  12 16 17  13 18 19  13 17 19  18 20 21  18 19 21  20 22 23  20 21 23  22 24 25  22 23 25  15 14 26  15 27 26  14 16 28  14 26 28  16 17 29  16 28 29  17 19 30  17 29 30  19 21 31  19 30 31  21 23 32  21 31 32  23 25 33  23 32 33  27 26 34  27 35 34  26 28 36  26 34 36  28 29 37  28 36 37  29 30 38  29 37 38  30 31 39  30 38 39  31 32 40  31 39 40  32 33 41  32 40 41  35 34 42  35 43 42  34 36 44  34 42 44  36 37 45  36 44 45  37 38 46  37 45 46  38 39 47  38 46 47  39 40 48  39 47 48  40 41 49  40 48 49  </DataArray>
<DataArray  type="UInt32"  Name="offsets"  format="ascii">3 6 9 12 15 18 21 24 27 30 33 36 39 42 45 48 51 54 57 60 63 66 69 72 75 78 81 84 87 90 93 96 99 102 105 108 111 114 117 120 123 126 129 132 135 138 141 144 147 150 153 156 159 162 165 168 171 174 177 180 183 186 189 192 195 198 201 204 207 210 </DataArray>
<DataArray  type="UInt8"  Name="types"  format="ascii">5 5 5 5 5 5 5 5 5 5 5 5 5 5 5 5 5 5 5 5 5 5 5 5 5 5 5 5 5 5 5 5 5 5 5 5 5 5 5 5 5 5 5 5 5 5 5 5 5 5 5 5 5 5 5 5 5 5 5 5 5 5 5 5 5 5 5 5 5 5 </DataArray>
</Cells>
<PointData  Vectors="f_32"> 
<DataArray  type="Float64"  Name="f_32"  NumberOfComponents="3" format="ascii">1.2387201908942906e-02 1.3123169969784297e-02 0.0000000000000000e+00  1.1696116899342853e-02 6.6738908935552264e-03 0.0000000000000000e+00  1.9057296254216431e-02 7.8549720731900113e-03 0.0000000000000000e+00  1.8738473108067533e-02 4.4019041189019971e-04 0.0000000000000000e+00  1.1457172430784078e-02 4.1467712261989196e-04 0.0000000000000000e+00  2.6916088097761286e-02 4.7206454115459375e-04 0.0000000000000000e+00  1.8961552739176241e-02 -6.9699962369968536e-03 0.0000000000000000e+00  2.7172613881996779e-02 -7.6371349303622745e-03 0.0000000000000000e+00  3.5857552700831991e-02 -7.9610116475569512e-03 0.0000000000000000e+00  2.8051986194870253e-02 -1.5777138046418143e-02 0.0000000000000000e+00  3.6719078412906662e-02 -1.6399872018178337e-02 0.0000000000000000e+00  4.4744770945040147e-02 -8.0570496801203786e-03 0.0000000000000000e+00  4.5531057594705306e-02 -1.6598547582404959e-02 0.0000000000000000e+00  5.4366932614640172e-02 -1.6565181845542992e-02 0.0000000000000000e+00  3.8133727494802525e-02 -2.4753622267233950e-02 0.0000000000000000e+00  2.9566140660640207e-02 -2.3932167671798812e-02 0.0000000000000000e+00  4.6776644493914193e-02 -2.5013568315058854e-02 0.0000000000000000e+00  5.5433839358078031e-02 -2.4978791858208910e-02 0.0000000000000000e+00  6.3175361504073393e-02 -1.6440909257024607e-02 0.0000000000000000e+00  6.4087386247028866e-02 -2.4838053601303350e-02 0.0000000000000000e+00  7.1951851549294898e-02 -1.6334653963439128e-02 0.0000000000000000e+00  7.2744877713539380e-02 -2.4730228845204493e-02 0.0000000000000000e+00  8.0729983915945450e-02 -1.6343585344408763e-02 0.0000000000000000e+00  8.1432918563163967e-02 -2.4778519655753155e-02 0.0000000000000000e+00  8.9573173854198412e-02 -1.6625029532570623e-02 0.0000000000000000e+00  9.0165389939579746e-02 -2.5148792193400389e-02 0.0000000000000000e+00  3.9967640726879472e-02 -3.2901596276386537e-02 0.0000000000000000e+00  3.1679219864862170e-02 -3.1987210423684971e-02 0.0000000000000000e+00  4.8302965991629448e-02 -3.3201641839565421e-02 0.0000000000000000e+00  5.6687355819675919e-02 -3.3190239694251084e-02 0.0000000000000000e+00  6.5126165430643632e-02 -3.3075430073991843e-02 0.0000000000000000e+00  7.3627224794604901e-02 -3.3007295893048197e-02 0.0000000000000000e+00  8.2200557769376958e-02 -3.3113623194179286e-02 0.0000000000000000e+00  9.0815217272829721e-02 -3.3511470239136996e-02 0.0000000000000000e+00  4.1931152351966816e-02 -4.0651736192227367e-02 0.0000000000000000e+00  3.4210238639285982e-02 -3.9665675110946576e-02 0.0000000000000000e+00  4.9801738042349622e-02 -4.1045729824536657e-02 0.0000000000000000e+00  5.7841345519110195e-02 -4.1134995289119687e-02 0.0000000000000000e+00  6.6042463684313532e-02 -4.1119629912321438e-02 0.0000000000000000e+00  7.4386369370450553e-02 -4.1148689409780316e-02 0.0000000000000000e+00  8.2850178440878192e-02 -4.1341868572562994e-02 0.0000000000000000e+00  9.1379902992282408e-02 -4.1740913181123357e-02 0.0000000000000000e+00  4.3418486074964693e-02 -4.7845775258469656e-02 0.0000000000000000e+00  3.6476007366221731e-02 -4.6611792264302031e-02 0.0000000000000000e+00  5.0776223308959173e-02 -4.8500316799157672e-02 0.0000000000000000e+00  5.8505822859465012e-02 -4.8830706266327149e-02 0.0000000000000000e+00  6.6549267894318323e-02 -4.9020890198556058e-02 0.0000000000000000e+00  7.4840557036089467e-02 -4.9211101826898876e-02 0.0000000000000000e+00  8.3296556054501564e-02 -4.9505110996903835e-02 0.0000000000000000e+00  9.1812719965299577e-02 -4.9918830867072495e-02 0.0000000000000000e+00  </DataArray> 
</PointData> 
</Piece>
</UnstructuredGrid>
</VTKFile>