<?xml version="1.0"?>
<VTKFile type="UnstructuredGrid"  version="0.1"  >
<UnstructuredGrid>
<Piece  NumberOfPoints="625" NumberOfCells="2522">
<Points>
<DataArray  type="Float64"  NumberOfComponents="3"  format="ascii">0 0 0.3333333333333333  0 0 0.4166666666666667  0.08333333333333333 0 0.4166666666666667  0.08333333333333333 0.08333333333333333 0.4166666666666667  0 0.08333333333333333 0.4166666666666667  0.08333333333333333 0.08333333333333333 0.5  0.08333333333333333 0 0.5  0 0 0.5  0 0.08333333333333333 0.5  0.1666666666666667 0 0.4166666666666667  0.1666666666666667 0.08333333333333333 0.4166666666666667  0.1666666666666667 0.08333333333333333 0.5  0.1666666666666667 0 0.5  0.25 0 0.4166666666666667  0.25 0.08333333333333333 0.4166666666666667  0.25 0.08333333333333333 0.5  0.25 0 0.5  0.3333333333333333 0 0.4166666666666667  0.3333333333333333 0.08333333333333333 0.4166666666666667  0.3333333333333333 0.08333333333333333 0.5  0.3333333333333333 0 0.5  0.4166666666666667 0 0.4166666666666667  0.4166666666666667 0.08333333333333333 0.4166666666666667  0.4166666666666667 0.08333333333333333 0.5  0.4166666666666667 0 0.5  0.5 0 0.4166666666666667  0.5 0.08333333333333333 0.4166666666666667  0.5 0.08333333333333333 0.5  0.5 0 0.5  0.08333333333333333 0.1666666666666667 0.4166666666666667  0.08333333333333333 0.1666666666666667 0.5  0 0.1666666666666667 0.4166666666666667  0 0.1666666666666667 0.5  0.1666666666666667 0.1666666666666667 0.4166666666666667  0.1666666666666667 0.1666666666666667 0.5  0.25 0.1666666666666667 0.4166666666666667  0.25 0.1666666666666667 0.5  0.3333333333333333 0.1666666666666667 0.4166666666666667  0.3333333333333333 0.1666666666666667 0.5  0.4166666666666667 0.1666666666666667 0.4166666666666667  0.4166666666666667 0.1666666666666667 0.5  0.5 0.1666666666666667 0.4166666666666667  0.5 0.1666666666666667 0.5  0.08333333333333333 0.25 0.4166666666666667  0.08333333333333333 0.25 0.5  0 0.25 0.4166666666666667  0 0.25 0.5  0.1666666666666667 0.25 0.4166666666666667  0.1666666666666667 0.25 0.5  0.25 0.25 0.4166666666666667  0.25 0.25 0.5  0.3333333333333333 0.25 0.4166666666666667  0.3333333333333333 0.25 0.5  0.4166666666666667 0.25 0.4166666666666667  0.4166666666666667 0.25 0.5  0.5 0.25 0.4166666666666667  0.5 0.25 0.5  0.08333333333333333 0.3333333333333333 0.4166666666666667  0.08333333333333333 0.3333333333333333 0.5  0 0.3333333333333333 0.4166666666666667  0 0.3333333333333333 0.5  0.1666666666666667 0.3333333333333333 0.4166666666666667  0.1666666666666667 0.3333333333333333 0.5  0.25 0.3333333333333333 0.5  0.3333333333333333 0.3333333333333333 0.5  0.4166666666666667 0.3333333333333333 0.5  0.5 0.3333333333333333 0.5  0.08333333333333333 0.4166666666666667 0.4166666666666667  0.08333333333333333 0.4166666666666667 0.5  0 0.4166666666666667 0.4166666666666667  0 0.4166666666666667 0.5  0.1666666666666667 0.4166666666666667 0.5  0.25 0.4166666666666667 0.5  0.08333333333333333 0.5 0.5  0 0.5 0.5  0 0.5 0.4166666666666667  0.1666666666666667 0.5 0.5  0.08333333333333333 0.5833333333333334 0.5  0 0.5833333333333334 0.5  0.08333333333333333 0.08333333333333333 0.5833333333333334  0.08333333333333333 0 0.5833333333333334  0 0 0.5833333333333334  0 0.08333333333333333 0.5833333333333334  0.1666666666666667 0.08333333333333333 0.5833333333333334  0.1666666666666667 0 0.5833333333333334  0.25 0.08333333333333333 0.5833333333333334  0.25 0 0.5833333333333334  0.3333333333333333 0.08333333333333333 0.5833333333333334  0.3333333333333333 0 0.5833333333333334  0.4166666666666667 0.08333333333333333 0.5833333333333334  0.4166666666666667 0 0.5833333333333334  0.5 0.08333333333333333 0.5833333333333334  0.5 0 0.5833333333333334  0.08333333333333333 0.1666666666666667 0.5833333333333334  0 0.1666666666666667 0.5833333333333334  0.1666666666666667 0.1666666666666667 0.5833333333333334  0.25 0.1666666666666667 0.5833333333333334  0.3333333333333333 0.1666666666666667 0.5833333333333334  0.4166666666666667 0.1666666666666667 0.5833333333333334  0.5 0.1666666666666667 0.5833333333333334  0.08333333333333333 0.25 0.5833333333333334  0 0.25 0.5833333333333334  0.1666666666666667 0.25 0.5833333333333334  0.25 0.25 0.5833333333333334  0.3333333333333333 0.25 0.5833333333333334  0.4166666666666667 0.25 0.5833333333333334  0.5 0.25 0.5833333333333334  0.08333333333333333 0.3333333333333333 0.5833333333333334  0 0.3333333333333333 0.5833333333333334  0.1666666666666667 0.3333333333333333 0.5833333333333334  0.25 0.3333333333333333 0.5833333333333334  0.3333333333333333 0.3333333333333333 0.5833333333333334  0.4166666666666667 0.3333333333333333 0.5833333333333334  0.5 0.3333333333333333 0.5833333333333334  0.08333333333333333 0.4166666666666667 0.5833333333333334  0 0.4166666666666667 0.5833333333333334  0.1666666666666667 0.4166666666666667 0.5833333333333334  0.25 0.4166666666666667 0.5833333333333334  0.3333333333333333 0.4166666666666667 0.5833333333333334  0.4166666666666667 0.4166666666666667 0.5833333333333334  0.5 0.4166666666666667 0.5833333333333334  0.08333333333333333 0.5 0.5833333333333334  0 0.5 0.5833333333333334  0.1666666666666667 0.5 0.5833333333333334  0.25 0.5 0.5833333333333334  0.3333333333333333 0.5 0.5833333333333334  0.08333333333333333 0.5833333333333334 0.5833333333333334  0 0.5833333333333334 0.5833333333333334  0.1666666666666667 0.5833333333333334 0.5833333333333334  0.25 0.5833333333333334 0.5833333333333334  0.08333333333333333 0.6666666666666666 0.5833333333333334  0 0.6666666666666666 0.5833333333333334  0.1666666666666667 0.6666666666666666 0.5833333333333334  0.08333333333333333 0.08333333333333333 0.6666666666666666  0.08333333333333333 0 0.6666666666666666  0 0 0.6666666666666666  0 0.08333333333333333 0.6666666666666666  0.1666666666666667 0.08333333333333333 0.6666666666666666  0.1666666666666667 0 0.6666666666666666  0.25 0.08333333333333333 0.6666666666666666  0.25 0 0.6666666666666666  0.3333333333333333 0.08333333333333333 0.6666666666666666  0.3333333333333333 0 0.6666666666666666  0.4166666666666667 0.08333333333333333 0.6666666666666666  0.4166666666666667 0 0.6666666666666666  0.5 0.08333333333333333 0.6666666666666666  0.5 0 0.6666666666666666  0.08333333333333333 0.1666666666666667 0.6666666666666666  0 0.1666666666666667 0.6666666666666666  0.1666666666666667 0.1666666666666667 0.6666666666666666  0.25 0.1666666666666667 0.6666666666666666  0.3333333333333333 0.1666666666666667 0.6666666666666666  0.4166666666666667 0.1666666666666667 0.6666666666666666  0.5 0.1666666666666667 0.6666666666666666  0.08333333333333333 0.25 0.6666666666666666  0 0.25 0.6666666666666666  0.1666666666666667 0.25 0.6666666666666666  0.25 0.25 0.6666666666666666  0.3333333333333333 0.25 0.6666666666666666  0.4166666666666667 0.25 0.6666666666666666  0.5 0.25 0.6666666666666666  0.08333333333333333 0.3333333333333333 0.6666666666666666  0 0.3333333333333333 0.6666666666666666  0.1666666666666667 0.3333333333333333 0.6666666666666666  0.25 0.3333333333333333 0.6666666666666666  0.3333333333333333 0.3333333333333333 0.6666666666666666  0.4166666666666667 0.3333333333333333 0.6666666666666666  0.5 0.3333333333333333 0.6666666666666666  0.08333333333333333 0.4166666666666667 0.6666666666666666  0 0.4166666666666667 0.6666666666666666  0.1666666666666667 0.4166666666666667 0.6666666666666666  0.25 0.4166666666666667 0.6666666666666666  0.3333333333333333 0.4166666666666667 0.6666666666666666  0.4166666666666667 0.4166666666666667 0.6666666666666666  0.5 0.4166666666666667 0.6666666666666666  0.08333333333333333 0.5 0.6666666666666666  0 0.5 0.6666666666666666  0.1666666666666667 0.5 0.6666666666666666  0.25 0.5 0.6666666666666666  0.3333333333333333 0.5 0.6666666666666666  0.4166666666666667 0.5 0.5833333333333334  0.4166666666666667 0.5 0.6666666666666666  0.5 0.5 0.5833333333333334  0.5 0.5 0.6666666666666666  0.08333333333333333 0.5833333333333334 0.6666666666666666  0 0.5833333333333334 0.6666666666666666  0.1666666666666667 0.5833333333333334 0.6666666666666666  0.25 0.5833333333333334 0.6666666666666666  0.3333333333333333 0.5833333333333334 0.5833333333333334  0.3333333333333333 0.5833333333333334 0.6666666666666666  0.4166666666666667 0.5833333333333334 0.5833333333333334  0.4166666666666667 0.5833333333333334 0.6666666666666666  0.5 0.5833333333333334 0.5833333333333334  0.5 0.5833333333333334 0.6666666666666666  0.08333333333333333 0.6666666666666666 0.6666666666666666  0 0.6666666666666666 0.6666666666666666  0.1666666666666667 0.6666666666666666 0.6666666666666666  0.25 0.6666666666666666 0.5833333333333334  0.25 0.6666666666666666 0.6666666666666666  0.3333333333333333 0.6666666666666666 0.5833333333333334  0.3333333333333333 0.6666666666666666 0.6666666666666666  0.4166666666666667 0.6666666666666666 0.5833333333333334  0.4166666666666667 0.6666666666666666 0.6666666666666666  0.5 0.6666666666666666 0.5833333333333334  0.5 0.6666666666666666 0.6666666666666666  0.08333333333333333 0.75 0.5833333333333334  0.08333333333333333 0.75 0.6666666666666666  0 0.75 0.5833333333333334  0 0.75 0.6666666666666666  0.1666666666666667 0.75 0.5833333333333334  0.1666666666666667 0.75 0.6666666666666666  0.25 0.75 0.5833333333333334  0.25 0.75 0.6666666666666666  0.3333333333333333 0.75 0.5833333333333334  0.3333333333333333 0.75 0.6666666666666666  0.4166666666666667 0.75 0.5833333333333334  0.4166666666666667 0.75 0.6666666666666666  0.5 0.75 0.5833333333333334  0.5 0.75 0.6666666666666666  0.08333333333333333 0.8333333333333334 0.5833333333333334  0.08333333333333333 0.8333333333333334 0.6666666666666666  0 0.8333333333333334 0.5833333333333334  0 0.8333333333333334 0.6666666666666666  0.1666666666666667 0.8333333333333334 0.5833333333333334  0.1666666666666667 0.8333333333333334 0.6666666666666666  0.25 0.8333333333333334 0.5833333333333334  0.25 0.8333333333333334 0.6666666666666666  0.3333333333333333 0.8333333333333334 0.5833333333333334  0.3333333333333333 0.833333333333
[...]
<PointData  Vectors="f_35"> 
<DataArray  type="Float64"  Name="f_35"  NumberOfComponents="3" format="ascii">0.0000000000000000e+00 0.0000000000000000e+00 0.0000000000000000e+00  0.0000000000000000e+00 0.0000000000000000e+00 0.0000000000000000e+00  8.4401478712498781e-03 2.2220617146271687e-02 2.0228247727951095e-03  3.4792323362202982e-03 1.5683729642750111e-02 1.9675497300055849e-03  0.0000000000000000e+00 0.0000000000000000e+00 0.0000000000000000e+00  3.4405263930700190e-03 1.5781381537869808e-02 2.0700921343007596e-04  8.4208574321362629e-03 2.2325894296279330e-02 1.7073382553450551e-04  0.0000000000000000e+00 0.0000000000000000e+00 0.0000000000000000e+00  0.0000000000000000e+00 0.0000000000000000e+00 0.0000000000000000e+00  1.6847558813734655e-02 2.8580560666127190e-02 3.5502621120551059e-03  1.2891030564143528e-02 2.2880738057907479e-02 3.3992035019287260e-03  1.2771879525596056e-02 2.3042441190642471e-02 1.4472862675850813e-04  1.6750450644905428e-02 2.8747005559776759e-02 1.4853226406187262e-04  2.5778036717069540e-02 3.1992288275135609e-02 4.6567993373851013e-03  2.3243737743119743e-02 2.6985509503643562e-02 4.4954070100929324e-03  2.3069182772044346e-02 2.7165061411948476e-02 1.3739101978004555e-04  2.5609899733485438e-02 3.2174499190735756e-02 1.2986142627285111e-04  3.6062959748137821e-02 3.3443677832816390e-02 5.3393951226159636e-03  3.4633486735442802e-02 2.8413763998071131e-02 5.1844134414688100e-03  3.4435400414502423e-02 2.8575788611430484e-02 1.1915852363593531e-04  3.5858899114821749e-02 3.3607748295470308e-02 1.1392481352998082e-04  4.7209576643781365e-02 3.3987378588167930e-02 5.6963609166638673e-03  4.6384215986350674e-02 2.8909816425949694e-02 5.5675349533874478e-03  4.6193095788339446e-02 2.9038470655068434e-02 1.0802039333822619e-04  4.7006175031678248e-02 3.4117776118380176e-02 1.0380822073851824e-04  5.8914543543604404e-02 3.4100456332565657e-02 5.8461634004474978e-03  5.8465488088813140e-02 2.8914935657993829e-02 5.7491846135765906e-03  5.8298166153592082e-02 2.9008321357243468e-02 1.0364442269423775e-04  5.8734002785552145e-02 3.4195122584487744e-02 1.0049762265812415e-04  2.3816994344448557e-03 1.0529483713607249e-02 1.9957511763617482e-03  2.3470690812512447e-03 1.0631073444637679e-02 2.0671587008480309e-04  0.0000000000000000e+00 0.0000000000000000e+00 0.0000000000000000e+00  0.0000000000000000e+00 0.0000000000000000e+00 0.0000000000000000e+00  1.0638687598567549e-02 1.7232276957552289e-02 3.4717339006005636e-03  1.0522635022609014e-02 1.7374672297168690e-02 1.5457057597974576e-04  2.0939403741308961e-02 2.1092392112830798e-02 4.5797809724151071e-03  2.0761184146211007e-02 2.1243315915365112e-02 1.5460146604451944e-04  3.2763403007672595e-02 2.2755823123664639e-02 5.2530011408551932e-03  3.2558703266073852e-02 2.2891883031320434e-02 1.3304292054379090e-04  4.5006805363662167e-02 2.3370029291256509e-02 5.6180737421119217e-03  4.4809155451663557e-02 2.3478851515744359e-02 1.2001964077923992e-04  5.7517260369835913e-02 2.3418003584939239e-02 5.7820219157906508e-03  5.7345157862684230e-02 2.3497371259548247e-02 1.1235691832866565e-04  2.0627683855666728e-03 7.2090428662792642e-03 2.1087929886826669e-03  2.0297733785098050e-03 7.2936583939594273e-03 2.1852781543611551e-04  0.0000000000000000e+00 0.0000000000000000e+00 0.0000000000000000e+00  0.0000000000000000e+00 0.0000000000000000e+00 0.0000000000000000e+00  9.2659198926079850e-03 1.2210685604572410e-02 3.6263045081771864e-03  9.1466380173252562e-03 1.2315685489612158e-02 1.6223668095022588e-04  1.9315989770969235e-02 1.5380068229463835e-02 4.7357345536356722e-03  1.9128946061914842e-02 1.5494306937699709e-02 1.5588780044670944e-04  3.1147105792124541e-02 1.6963926214235446e-02 5.3885440623396112e-03  3.0932427333322802e-02 1.7067731874323248e-02 1.3171068945161822e-04  4.3674448840932752e-02 1.7592672221355059e-02 5.7238114000893250e-03  4.3466510017359940e-02 1.7676350959284038e-02 1.1798223964423466e-04  5.6496411366321657e-02 1.7707930562684750e-02 5.8566723365845105e-03  5.6316216379987537e-02 1.7769284087243254e-02 1.0987394339475092e-04  1.8503438659553328e-03 4.5496493344496375e-03 2.2211558630868982e-03  1.8168471361090226e-03 4.6079309004412594e-03 2.2660678824076898e-04  0.0000000000000000e+00 0.0000000000000000e+00 0.0000000000000000e+00  0.0000000000000000e+00 0.0000000000000000e+00 0.0000000000000000e+00  8.5669772015888063e-03 7.8048878591566269e-03 3.7702878230892220e-03  8.4457253191470606e-03 7.8732854164221718e-03 1.6059342814123912e-04  1.8097084042858130e-02 1.0100284535552777e-02 1.5371247762699958e-04  2.9761310083629072e-02 1.1287823400351598e-02 1.2866722342085328e-04  4.2415559847575342e-02 1.1799487489228547e-02 1.1444733758745977e-04  5.5449484813511814e-02 1.1918166621152337e-02 1.0657329710528811e-04  1.7609534567717695e-03 2.2998140205147937e-03 2.2998140205147143e-03  1.7270878349413127e-03 2.3289643772721265e-03 2.3109145146658346e-04  0.0000000000000000e+00 0.0000000000000000e+00 0.0000000000000000e+00  0.0000000000000000e+00 0.0000000000000000e+00 0.0000000000000000e+00  8.0953552317531898e-03 3.8991511356157222e-03 1.5676753963461083e-04  1.7508169497327523e-02 5.0323051099256137e-03 1.4989027819744277e-04  1.6930242002180362e-03 2.3098282603704832e-04 2.3098282603711313e-04  0.0000000000000000e+00 0.0000000000000000e+00 0.0000000000000000e+00  0.0000000000000000e+00 0.0000000000000000e+00 0.0000000000000000e+00  7.9718005498774034e-03 1.5085880130901735e-04 1.5085880130896384e-04  1.7086455664015530e-03 -1.8481220833068772e-03 2.2646339618026366e-04  0.0000000000000000e+00 0.0000000000000000e+00 0.0000000000000000e+00  3.4598170239572290e-03 1.5715268745233400e-02 -1.5408857872020159e-03  8.4167671643975740e-03 2.2254202178033897e-02 -1.6701499727160899e-03  0.0000000000000000e+00 0.0000000000000000e+00 0.0000000000000000e+00  0.0000000000000000e+00 0.0000000000000000e+00 0.0000000000000000e+00  1.2853597628074640e-02 2.2898027253458686e-02 -3.1046118106250152e-03  1.6811377411758845e-02 2.8601164079120053e-02 -3.2485195111088497e-03  2.3212665778818361e-02 2.6991301554991378e-02 -4.2204003259782861e-03  2.5747601635730959e-02 3.2000007470337807e-02 -4.3971123485169435e-03  3.4613419894463052e-02 2.8410383433415454e-02 -4.9472811854780058e-03  3.6043904176817826e-02 3.3442333732461728e-02 -5.1116836014447999e-03  4.6374153759201474e-02 2.8902251871960910e-02 -5.3520791716396886e-03  4.7200715417071056e-02 3.3981368750874610e-02 -5.4884196771111749e-03  5.8460062074750373e-02 2.8907008385732756e-02 -5.5412281658680593e-03  5.8910586644916468e-02 3.4093539853399205e-02 -5.6436083562107220e-03  2.3652805469992258e-03 1.0563279232671682e-02 -1.5667764437476957e-03  0.0000000000000000e+00 0.0000000000000000e+00 0.0000000000000000e+00  1.0606942540382745e-02 1.7243334423038995e-02 -3.1543990273866997e-03  2.0910196829188422e-02 2.1088689887548567e-02 -4.2690714682860152e-03  3.2741481206789207e-02 2.2744866653771085e-02 -4.9889158682984783e-03  4.4992682843407981e-02 2.3357375502994819e-02 -5.3800603746748414e-03  5.7507465994393846e-02 2.3406634794930818e-02 -5.5581922199539032e-03  2.0458569403107936e-03 7.2333816287565014e-03 -1.6538591909314891e-03  0.0000000000000000e+00 0.0000000000000000e+00 0.0000000000000000e+00  9.2290604254642444e-03 1.2207375386871397e-02 -3.2939028540239623e-03  1.9281879485026961e-02 1.5372878168848041e-02 -4.4235674368791117e-03  3.1123842130188820e-02 1.6952796928829290e-02 -5.1289132550136566e-03  4.3659839132264039e-02 1.7580722063106027e-02 -5.4911746095701111e-03  5.6487095622020561e-02 1.7697325246179101e-02 -5.6384901087692466e-03  1.8322741131623441e-03 4.5642592855512400e-03 -1.7493533737770372e-03  0.0000000000000000e+00 0.0000000000000000e+00 0.0000000000000000e+00  8.5289641415555052e-03 7.7977433796179978e-03 -3.4425661287898895e-03  1.8255008031560067e-02 1.0017678298617784e-02 -4.5845364653039657e-03  2.9961195784240675e-02 1.1208867195008160e-02 -5.2768617205947582e-03  4.2618724510439958e-02 1.1733470895356526e-02 -5.6119704832734863e-03  5.5629444103635163e-02 1.1868173570714057e-02 -5.7280412238637068e-03  1.7426196255991443e-03 2.3047543455506133e-03 -1.8188077589585635e-03  0.0000000000000000e+00 0.0000000000000000e+00 0.0000000000000000e+00  8.1797570100130626e-03 3.8581006130724719e-03 -3.5492054582513611e-03  1.7669274164597189e-02 4.9884193785652026e-03 -4.7003660910701741e-03  2.9281675222121738e-02 5.6145226639755024e-03 -5.3854942969720409e-03  4.1971606154023677e-02 5.9059273351455650e-03 -5.7019777815309819e-03  5.5074199185791733e-02 5.9891228862339850e-03 -5.7958358738606610e-03  1.7086455664016582e-03 2.2646339618025735e-04 -1.8481220833070160e-03  0.0000000000000000e+00 0.0000000000000000e+00 0.0000000000000000e+00  8.0567639503656193e-03 1.4430835343941147e-04 -3.5921581499989731e-03  1.7473831385052548e-02 1.3905470499131828e-04 -4.7461039438069811e-03  2.9054132487848154e-02 1.1189293201000519e-04 -5.4282504514160538e-03  1.7242019182628328e-03 -1.8330329531436025e-03 -1.8330329531435756e-03  0.0000000000000000e+00 0.0000000000000000e+00 0.0000000000000000e+00  8.1415371362418224e-03 -3.5643486448763101e-03 -3.5643486448763144e-03  1.7635747131812665e-02 -4.7132669676155396e-03 -4.7132669676155595e-03  1.7942423579488675e-03 -4.0435207678070281e-03 -1.7760559430013200e-03  0.0000000000000000e+00 0.0000000000000000e+00 0.0000000000000000e+00  8.4541789724195630e-03 -7.5007389987932077e-03 -3.4702138682197220e-03  3.5461484230719710e-03 1.5478979659032921e-02 -3.3794432296998158e-03  8.4360995506700311e-03 2.1999786120506685e-02 -3.5971755798801133e-03  0.0000000000000000e+00 0.0000000000000000e+00 0.0000000000000000e+00  0.0000000000000000e+00 0.0000000000000000e+00 0.0000000000000000e+00  1.3160747460563909e-02 2.2442743447805877e-02 -6.4977897859164494e-03  1.7060283871446015e-02 2.8134508901202778e-02 -6.7730053721837121e-03  2.3701122177007948e-02 2.6469845691506341e-02 -8.6900833645776714e-03  2.6221893852248115e-02 3.1471808045386546e-02 -9.0037077947901015e-03  3.5181320941411000e-02 2.7933535461329140e-02 -1.0064942837922270e-02  3.6634469038518136e-02 3.2959963521534345e-02 -1.0353236095970709e-02  4.6924523579820104e-02 2.8521862228640681e-02 -1.0810330082607993e-02  4.7789407271766705e-02 3.3596859236098370e-02 -1.1044406630541764e-02  5.8937553772011209e-02 2.8630848338891485e-02 -1.1156024084738586e-02  5.9428724641575677e-02 3.3813829899633788e-02 -1.1329189477942215e-02  2.4424487330951795e-03 1.0322782593226946e-02 -3.4568698699425460e-03  0.0000000000000000e+00 0.0000000000000000e+00 0.0000000000000000e+00  1.0914444611693006e-02 1.6840382287109722e-02 -6.6470874714110988e-03  2.1412689374543117e-02 2.0639460631379957e-02 -8.8417695467943782e-03  3.3326676481354477e-02 2.2333210789483689e-02 -1.0191009430468894e-02  4.5556056689823911e-02 2.3026830897762977e-02 -1.0899412454465848e-02  5.7991260194032404e-02 2.3165403305296241e-02 -1.1212947287375985e-02  2.1168847805789932e-03 7.0298218318656487e-03 -3.6652368474934284e-03  0.0000000000000000e+00 0.0000000000000000e+00 0.0000000000000000e+00  9.5349925783383953e-03 1.1893254734105328e-02 -6.9623574715373063e-03  1.9801085010419456e-02 1.5029735883417383e-02 -9.1767053070251538e-03  3.1738631243793280e-02 1.6637357234834140e-02 -1.0486563288916494e-02  4.4254027817913252e-02 1.7325096685712083e-02 -1.1129071255001630e-02  5.6995635520723648e-02 1.7509052900457324e-02 -1.1375697919444115e-02  1.9019468578472443e-03 4.4226191497771352e-03 -3.8739477950667672e-03  0.0000000000000000e+00 0.0000000000000000e+00 0.0000000000000000e+00  8.8376185586764196e-03 7.5874223622491221e-03 -7.2706243157951442e-03  1.8789709183004696e-02 9.7899627058680074e-03 -9.5074546904737357e-03  3.0602366831491062e-02 1.0998433120714048e-02 -1.0786507048375733e-02  4.3242052610639348e-02 1.1561571614879276e-02 -1.1370177398227930e-02  5.6163175938410595e-02 1.1740493965165959e-02 -1.1552073247612748e-02  1.8124560653233403e-03 2.2304379250166319e-03 -4.0195237298933720e-03  0.0000000000000000e+00 0.0000000000000000e+00 0.0000000000000000e+00  8.4916146171868396e-03 3.7516406749150775e-03 -7.4831460911200876e-03  1.8214231778194315e-02 4.8741731680454680e-03 -9.7382167334022721e-03  2.9939995076382560e-02 5.5089939969458455e-03 -1.0999890116797886e-02  4.2614501491147955e-02 5.8196887344898690e-03 -1.1544887674491253e-02  5.5625453318297408e-02 5.9249051569487650e-03 -1.1682169022883803e-02  1.7787205429593029e-03 2.1806927711612588e-04 -4.0780062374952469e-03  0.0000000000000000e+00 0.0000000000000000e+00 0.0000000000000000e+00  8.3701073067483523e-03 1.3841573423906871e-04 -7.5632040010358290e-03  1.8022736946604011e-02 1.3491773624530972e-04 -9.8244644188573427e-03  2.9718842951681208e-02 1.0919627129519950e-04 -1.1079381689775387e-02  4.1748425080596244e-02 9.9805342938592750e-05 -5.7371105145802822e-03  4.2398478709124394e-02 9.8653914780282427e-05 -1.1609782269382685e-02  5.4881856385468553e-02 9.4915138855158784e-05 -5.8222745355147572e-03  5.5439444365167199e-02 9.4717373973741942e-05 -1.1730485781095906e-02  1.7942423579489170e-03 -1.7760559430012805e-03 -4.0435207678070463e-03  0.0000000000000000e+00 0.0000000000000000e+00 0.0000000000000000e+00  8.4541789724194901e-03 -3.4702138682197155e-03 -7.5007389987931236e-03  1.8182012749741613e-02 -4.6077172430997425e-03 -9.7528520668735477e-03  2.9260701453467049e-02 -5.3965185782623689e-03 -5.3965185782622821e-03  2.9920613558114303e-02 -5.2965963119570164e-03 -1.1010478029255937e-02  4.1959855310435681e-02 -5.7097411678704128e-03 -5.7097411678704354e-03  4.2603967632393852e-02 -5.6258161308623206e-03 -1.1551250691320793e-02  5.5069584830003168e-02 -5.8010125614322483e-03 -5.8010125614320601e-03  5.5621416940773043e-02 -5.7371333548828880e-03 -1.1685560628233201e-02  1.8644770776068873e-03 -3.9199549728226009e-03 -3.9199549728225680e-03  0.0000000000000000e+00 0.0000000000000000e+00 0.0000000000000000e+00  8.7645209797060884e-03 -7.3039276095050254e-03 -7.3039276095050003e-03  1.8182012749741551e-02 -9.7528520668735269e-03 -4.6077172430997859e-03  1.8719320217437187e-02 -9.5346197024010169e-03 -9.5346197024010013e-03  2.9920613558114345e-02 -1.1010478029255881e-02 -5.2965963119571101e-03  3.0564852671504966e-02 -1.0805875940745006e-02 -1.0805875940744905e-02  4.2603967632393817e-02 -1.1551250691320755e-02 -5.6258161308623935e-03  4.3229599751231799e-02 -1.1381703178552884e-02 -1.1381703178552794e-02  5.5621416940772994e-02 -1.1685560628233079e-02 -5.7371333548829348e-03  5.6156170843202340e-02 -1.1558146377301076e-02 -1.1558146377300963e-02  1.9508841520926906e-03 -6.6150337547113466e-03 -1.6856348194010820e-03  2.0223425988417994e-03 -6.4266260376025647e-03 -3.7233167942402915e-03  0.0000000000000000e+00 0.0000000000000000e+00 0.0000000000000000e+00  0.0000000000000000e+00 0.0000000000000000e+00 0.0000000000000000e+00  9.0888098883894416e-03 -1.1892760772629705e-02 -3.3277530743216293e-03  9.3964469271191672e-03 -1.1594028093886643e-02 -7.0065763055984663e-03  1.9208613851630803e-02 -1.5137908979166483e-02 -4.4516699355585934e-03  1.9731824397135601e-02 -1.4805390758982392e-02 -9.2121652874363746e-03  3.1066496481900584e-02 -1.6777323240733763e-02 -5.1515199500943238e-03  3.1685708095696805e-02 -1.6467596933683552e-02 -1.0510534837743371e-02  4.3653498956947728e-02 -1.7409931148146183e-02 -5.5066572171973234e-03  4.4250611415803290e-02 -1.7156387275791489e-02 -1.1143074053242647e-02  5.6477235718172356e-02 -1.7519665202540703e-02 -5.6483441161672455e-03  5.6986822194357925e-02 -1.7331467227845808e-02 -1.1383026901038066e-02  2.2687065608123732e-03 -9.7406119609341254e-03 -1.5934596306511040e-03  2.3450925018200829e-03 -9.5114433607138942e-03 -3.5137855415107886e-03  0.0000000000000000e+00 0.0000000000000000e+00 0.0000000000000000e+00  0.0000000000000000e+00 0.0000000000000000e+00 0.0000000000000000e+00  1.0291635867631602e-02 -1.7053876654644858e-02 -3.1825858760317124e-03  1.0602206405485743e-02 -1.6667363742132364e-02 -6.6934365985756679e-03  2.0864788179867165e-02 -2.0907131803868998e-02 -4.2935369728080508e-03  2.1372571891555194e-02 -2.0468603759056254e-02 -8.8777119412343387e-03  3.2702421644600931e-02 -2.2625061539598475e-02 -5.0081175632350136e-03  3.3292149310371999e-02 -2.2218551650079663e-02 -1.0215072789133752e-02  4.5002389536097892e-02 -2.3192605068539453e-02 -5.3926162236860959e-03  4.5568138936141173e-02 -2.2863915944239113e-02 -1.0913585944439908e-02  5.7500353139043697e-02 -2.3228164873607168e-02 -5.5662334193994807e-03  5.7984613055992860e-02 -2.2987068921708497e-02 -1.1221069191412806e-02  3.4374307635306571e-03 -1.4472585665461384e-02 -1.5374667284362346e-03  3.5293037343793777e-03 -1.4233203913787698e-02 -3.3801412720252371e-03  0.0000000000000000e+00 0.0000000000000000e+00 0.0000000000000000e+00  0.0000000000000000e+00 0.0000000000000000e+00 0.0000000000000000e+00  1.2609551158024991e-02 -2.2999290956596679e-02 -3.0931608136733116e-03  1.2917498073933151e-02 -2.2548442208097257e-02 -6.4987478210948952e-03  2.3345736055140207e-02 -2.6770206508486983e-02 -4.2099480834345542e-03  2.3831036197996331e-02 -2.6251688446664860e-02 -8.6960138949494833e-03  3.4610338065577596e-02 -2.8257483135329477e-02 -4.9404665097975758e-03  3.5174901516654193e-02 -2.7780960692120205e-02 -1.0073991028543396e-02  4.6365407144279842e-02 -2.8711139243593895e-02 -5.3467528332754987e-03  4.6912888881992486e-02 -2.8330290451866594e-02 -1.0819231269187131e-02  5.8428320299344430e-02 -2.8704201464020428e-02 -5.5381264815985570e-03  5.8903248046752336e-02 -2.8427276902281612e-02 -1.1164131431136443e-02  6.7238707982116242e-03 -2.1323649955107299e-02 -1.5832643334339474e-03  6.7558590507190916e-03 -2.1088951371135305e-02 -3.4962340107574912e-03  0.0000000000000000e+00 0.0000000000000000e+00 0.0000000000000000e+00  0.0000000000000000e+00 0.0000000000000000e+00 0.0000000000000000e+00  1.7080650591737991e-02 -2.8839093189137972e-02 -3.2377260478230973e-03  1.7328048863692280e-02 -2.8374367415733411e-02 -6.7692360531665576e-03  2.5854189472523079e-02 -3.1886509269546795e-02 -4.3629525249862843e-03  2.6321754438755254e-02 -3.1358018242336437e-02 -8.9904937927755488e-03  3.6069419742989467e-02 -3.3276575214621858e-02 -5.0935235295781625e-03  3.6652101524804019e-02 -3.2792961862934220e-02 -1.0357339364717886e-02  4.7179443914717595e-02 -3.3788689096903246e-02 -5.4746177845437774e-03  4.7763001995242013e-02 -3.3403316071461499e-02 -1.1051680329659306e-02  5.8860804871894483e-02 -3.3883721110374715e-02 -5.6356853286807090e-03  5.9374861670622184e-02 -3.3603389423454672e-02 -1.1338562725290470e-02  3.7384004703305985e-03 1.5051277882396732e-02 -5.4642062682856039e-03  8.5418468227468416e-03 2.1537453809201506e-02 -5.7590003779847913e-03  0.0000000000000000e+00 0.0000000000000000e+00 0.0000000000000000e+00  0.0000000000000000e+00 0.0000000000000000e+00 0.0000000000000000e+00  1.3794037211959083e-02 2.1671282182094968e-02 -1.0207229882178925e-02  1.7606743231591313e-02 2.7337851878039599e-02 -1.0535881357732122e-02  2.4623396874166412e-02 2.5635203550588979e-02 -1.3384903752230223e-02  2.7137671857003977e-02 3.0607929592451035e-02 -1.3760046983862496e-02  3.6165890562096029e-02 2.7210319782073968e-02 -1.5255440550886897e-02  3.7658592652240995e-02 3.2218211685732953e-02 -1.5586640940241288e-02  4.7823216421876195e-02 2.7968394389429562e-02 -1.6245168915156486e-02  4.8748082814378993e-02 3.3028252910535842e-02 -1.6506953179121604e-02  5.9680637685669093e-02 2.8242521243768162e-02 -1.6701469987577492e-02  6.0231337712285907e-02 3.3414215176725548e-02 -1.6890987433482236e-02  2.6165311867688452e-03 9.9056123214231098e-03 -5.6650394417698561e-03  0.0000000000000000e+00 0.0000000000000000e+00 0.0000000000000000e+00  1.1544470950462526e-02 1.6186973417034990e-02 -1.0538697594660128e-02  2.2361715887586644e-02 1.9947582021176271e-02 -1.3708317572409574e-02  3.4347787128710047e-02 2.1726672389518975e-02 -1.5517600248466113e-02  4.6480658677217679e-02 2.2557975314515710e-02 -