<?xml version="1.0"?>
<VTKFile type="UnstructuredGrid"  version="0.1"  >
<UnstructuredGrid>
<Piece  NumberOfPoints="663" NumberOfCells="2707">
<Points>
<DataArray  type="Float64"  NumberOfComponents="3"  format="ascii">0.5629153226521766 0.03262853925496965 0.03262853925496978  0.6572497480664378 0.03309249989993929 0.03309249989993941  0.6567770281034425 0.1112758714045895 0.03313673440885122  0.6563498204789133 0.1112495578785616 0.1112495578785615  0.6567770281034424 0.03313673440885113 0.1112758714045895  0.5621824205600908 0.03270781411645118 0.1109886021078839  0.5621824205600907 0.1109886021078839 0.03270781411645128  0.5615078766384247 0.1109534222131578 0.1109534222131577  0.7520230000046308 0.03335518789901692 0.03335518789901715  0.7517125701306064 0.1113960184482249 0.03337703009946988  0.7514363594760209 0.1113781121801575 0.1113781121801574  0.7517125701306065 0.03337703009946992 0.1113960184482247  0.8471386476553284 0.03351215773240612 0.03351215773240624  0.8469194584512229 0.1114430185619188 0.03351941023775044  0.8467271478236708 0.111432440689609 0.111432440689609  0.8469194584512226 0.0335194102377505 0.1114430185619185  0.9425019853019998 0.03362827831073585 0.03362827831073577  0.9423326839434446 0.1114784092746617 0.03362727733753843  0.9421819822741719 0.1114738622899339 0.111473862289934  0.9423326839434447 0.03362727733753848 0.1114784092746617  1.038055504848079 0.03374775294444537 0.03374775294444533  1.037903288340095 0.1115393510234046 0.03374548430026957  1.037763252351384 0.1115415921236503 0.1115415921236505  1.037903288340095 0.03374548430026971 0.1115393510234047  1.133688948336613 0.03387812157511007 0.03387812157511044  1.133546996184513 0.1116590242038869 0.03387757467474627  1.133413338331503 0.1116583781290448 0.1116583781290449  1.133546996184513 0.03387757467474641 0.1116590242038867  0.6560877163368447 0.1893327660753313 0.03332241008765435  0.6557071282546466 0.1892375469306008 0.1113964830502679  0.5612141864954349 0.1891629789645 0.03301406618157074  0.5605985685595004 0.1890204153347416 0.1112020093362051  0.7512213342026807 0.1893549250882471 0.03348006886308186  0.7509808569345262 0.1892965575593808 0.1114572348987672  0.8465594686732656 0.1893233910892717 0.03356589574627007  0.8463946081524085 0.1892932291850991 0.1114666384597716  0.9420533354043573 0.1892963730847662 0.03363483295428178  0.941923619271394 0.1892876898547789 0.1114782896376445  1.03766471840518 0.1893101431990133 0.03372406914835957  1.037544994939303 0.1893197324287826 0.1115253998091153  1.133329232826091 0.1894272578445148 0.03383544060144437  1.133214884172614 0.1894342749552788 0.1116269519633813  0.6553479943781276 0.2672142994998867 0.03358786709369004  0.6550228802501857 0.2670851297742519 0.1116440266023995  0.560238530852543 0.2671089327033646 0.03343231385634191  0.5596906713247242 0.2669175595489533 0.1115943952371195  0.7506685084344091 0.267189646721562 0.03363425315268521  0.7504716531554734 0.2671100453490109 0.1115999750379359  0.8461401951132634 0.2671223326811895 0.03363993810838933  0.8460096193815263 0.2670810866832401 0.1115350893621656  0.9417201695982507 0.2670642768006844 0.03364934293233816  0.9416182275362767 0.2670531450573058 0.1114932178586829  1.037374591196959 0.2670548566256045 0.03368802058892899  1.037282338230379 0.2670675490285961 0.1114999099652344  1.133063705998802 0.2671634989230053 0.03375879387489808  1.132979143808301 0.2671784869236311 0.1115709780398087  0.6547103366036073 0.3449372771118105 0.03384683179960193  0.6544360837155937 0.3448204275231401 0.1118953517392819  0.5594348712750488 0.3448701877770549 0.03382739359846373  0.5589463761014041 0.3446997397786499 0.1119790188356594  0.7501753276633767 0.344904211747207 0.03378893982478422  0.7500195606637811 0.344831416976235 0.1117497316011425  0.8457560503291788 0.3448392145024719 0.03371643004542396  0.8456584017119487 0.3448011375731693 0.1116097219584452  0.9414075920639108 0.3447825602306729 0.03366489498545704  0.9413331207434482 0.3447724519063358 0.1115114747032407  1.037099377381653 0.3447700479639781 0.03365081031252199  1.037034197670097 0.3447807371375256 0.11147493979225  1.132812104050554 0.3448556903275636 0.03367950076091116  1.132758334583672 0.3448721766020449 0.1115151347592259  0.6542847091293182 0.4225476587303303 0.03402939819607595  0.6540455018123671 0.4224803741037532 0.1120750093362368  0.5589145435436044 0.4225128300671143 0.03410045633256573  0.558465488088813 0.4224158512802433 0.1122482689913271  0.7498381778873241 0.4225285973692577 0.03389969295434159  0.7497112937032439 0.4224863181056888 0.1118587118140614  0.8454881655704878 0.4224927274722419 0.03377180983407622  0.8454139602234313 0.4224703717000959 0.1116649320667872  0.9411856128864268 0.4224616318181845 0.0336759228849988  0.941131156360966 0.422455803547688 0.1115254308078202  1.036902768134345 0.4224588330194498 0.03362358278156711  1.036856957024227 0.4224638284606224 0.1114572351837004  1.132632151852376 0.4225073635515001 0.03362173527923048  1.13260080883206 0.4225191504894729 0.1114750958018121  0.6557071282546465 0.1113964830502679 0.1892375469306008  0.6560877163368445 0.03332241008765442 0.1893327660753312  0.561214186495435 0.03301406618157082 0.1891629789644998  0.5605985685595005 0.111202009336205 0.1890204153347417  0.7509808569345262 0.1114572348987671 0.1892965575593809  0.7512213342026808 0.03348006886308173 0.1893549250882471  0.8463946081524086 0.1114666384597717 0.189293229185099  0.8465594686732656 0.03356589574627004 0.189323391089272  0.9419236192713942 0.1114782896376445 0.1892876898547789  0.9420533354043574 0.03363483295428185 0.1892963730847662  1.037544994939303 0.1115253998091154 0.1893197324287824  1.037664718405181 0.03372406914835959 0.1893101431990131  1.133214884172614 0.1116269519633813 0.1894342749552787  1.133329232826091 0.03383544060144459 0.1894272578445149  0.6550755763719901 0.1893450847503829 0.1893450847503829  0.5596916110965902 0.1892030418190943 0.1892030418190942  0.75054006480514 0.1893538673683192 0.1893538673683192  0.8460770446353583 0.1893179656274124 0.1893179656274125  0.9416809647434348 0.1892913328166804 0.1892913328166804  1.037344268790639 0.1893073995306843 0.1893073995306843  1.133038093954336 0.1894069072042314 0.1894069072042312  0.6543889899661141 0.2671547846603876 0.1895513479828833  0.5587685964219141 0.2670359729543946 0.1895263379709206  0.7500363387991138 0.2671469058065493 0.1894735853389727  0.8457011986077765 0.2670970503624195 0.1893763437247432  0.9413873148650351 0.2670555835394572 0.1893060343664297  1.037096914810198 0.2670583434394656 0.1892903365877206  1.132825326788117 0.2671550224191258 0.1893680771248988  0.6537968980508949 0.3448597477678345 0.1897664232146734  0.5580085303139406 0.3447670998504648 0.1898530789067652  0.7495857465681776 0.3448520624937878 0.1896024561236778  0.8453551945249376 0.3448100314287465 0.1894416414431376  0.9411101334575555 0.3447735475239837 0.1893247540472199  1.036860434661524 0.3447742778549985 0.1892754613092616  1.132624006445587 0.3448542901573774 0.1893334097347333  0.6534024542543442 0.4224997337265089 0.1899216160852209  0.5575172603698357 0.4224486885824573 0.190084670251606  0.7492777570101729 0.4224966142853289 0.1896970931726  0.8451135877454199 0.4224748745975795 0.1894904576006961  0.9409128861477039 0.4224561713207823 0.1893394369927888  1.036690617855897 0.4224601856967672 0.1892657726844777  1.132479274545058 0.4225082850567231 0.1893100037745077  0.6550228802501858 0.1116440266023995 0.2670851297742519  0.6553479943781275 0.03358786709369006 0.2672142994998868  0.5602385308525432 0.03343231385634193 0.2671089327033647  0.5596906713247241 0.1115943952371194 0.2669175595489532  0.7504716531554734 0.1115999750379359 0.2671100453490109  0.7506685084344091 0.03363425315268523 0.2671896467215621  0.8460096193815264 0.1115350893621657 0.2670810866832401  0.8461401951132635 0.03363993810838942 0.2671223326811894  0.9416182275362763 0.1114932178586829 0.2670531450573057  0.9417201695982508 0.03364934293233804 0.2670642768006842  1.037282338230379 0.1114999099652346 0.2670675490285961  1.037374591196959 0.03368802058892896 0.2670548566256046  1.132979143808301 0.1115709780398088 0.267178486923631  1.133063705998802 0.03375879387489824 0.2671634989230054  0.6543889899661141 0.1895513479828833 0.2671547846603876  0.5587685964219141 0.1895263379709206 0.2670359729543946  0.7500363387991136 0.1894735853389727 0.2671469058065493  0.8457011986077763 0.1893763437247433 0.2670970503624194  0.9413873148650352 0.1893060343664297 0.2670555835394572  1.037096914810198 0.1892903365877206 0.2670583434394656  1.132825326788117 0.189368077124899 0.2671550224191259  0.6536803781852496 0.2673095006861069 0.2673095006861068  0.5578081844179092 0.2672754460256143 0.2672754460256142  0.7495226786682607 0.2672374347283216 0.2672374347283215  0.8453229361933718 0.2671417962187901 0.26714179621879  0.9410966688871126 0.2670675370971147 0.2670675370971146  1.036858024292519 0.2670462392658711 0.267046239265871  1.132628158795116 0.2671265764311722 0.2671265764311723  0.6530650069823301 0.3449606882700242 0.2674770298695158  0.5570117667187925 0.3449223402113272 0.2675276527050449  0.7490591662076433 0.3449115600512814 0.2673385849486654  0.8449710774892559 0.3448395727965057 0.2671939039918229  0.9408189076222613 0.3447813185981933 0.2670839197903703  1.036625803620534 0.3447657451359128 0.2670375434969536  1.132437170807829 0.3448346537049728 0.2671039736130945  0.6526547415652847 0.4225483047141896 0.2675986799867184  0.5564964113663217 0.4225233390032512 0.2677079305626847  0.74874168954939 0.4225252298217867 0.2674133792911655  0.8447247119506386 0.4224888465445498 0.2672331938993946  0.9406204463919597 0.4224593643474597 0.2670970690150071  1.036458027070242 0.4224552278811466 0.2670327393796125  1.132298631376275 0.4224977034769089 0.2670898459749476  0.6544360837155939 0.1118953517392819 0.344820427523
[...]
<PointData  Vectors="f_35"> 
<DataArray  type="Float64"  Name="f_35"  NumberOfComponents="3" format="ascii">-7.2592740418414015e-02 -3.7953376141972799e-02 -3.7953376141972625e-02  -8.5154061251741339e-02 -3.8522974119925404e-02 -3.8522974119925300e-02  -8.4556960854242164e-02 -3.2552139837466632e-02 -3.8579872206719226e-02  -8.4019080170975424e-02 -3.2518839655888143e-02 -3.2518839655888004e-02  -8.4556960854242344e-02 -3.8579872206719185e-02 -3.2552139837466472e-02  -7.1680279707104652e-02 -3.8053814056309941e-02 -3.2190839120544691e-02  -7.1680279707104763e-02 -3.2190839120544233e-02 -3.8053814056309997e-02  -7.0843479037133880e-02 -3.2147301184702659e-02 -3.2147301184702395e-02  -9.8220289133843730e-02 -3.8851720837338087e-02 -3.8851720837337879e-02  -9.7823229005710943e-02 -3.2710757986912135e-02 -3.8880681132108436e-02  -9.7471019703574316e-02 -3.2687556256040397e-02 -3.2687556256040334e-02  -9.7823229005710860e-02 -3.8880681132108456e-02 -3.2710757986912170e-02  -1.1168444469030854e-01 -3.9051118122175016e-02 -3.9051118122174870e-02  -1.1140281170936736e-01 -3.2777470995881283e-02 -3.9061711325699064e-02  -1.1115669602384382e-01 -3.2763266094188039e-02 -3.2763266094187976e-02  -1.1140281170936744e-01 -3.9061711325699286e-02 -3.2777470995881124e-02  -1.2543962765022634e-01 -3.9197209217973900e-02 -3.9197209217973684e-02  -1.2522299531186343e-01 -3.2824653578557669e-02 -3.9196925009346711e-02  -1.2503145185887996e-01 -3.2818296983433116e-02 -3.2818296983432908e-02  -1.2522299531186348e-01 -3.9196925009346871e-02 -3.2824653578557357e-02  -1.3942228759143593e-01 -3.9341879138089245e-02 -3.9341879138088898e-02  -1.3922701377757807e-01 -3.2897976489199905e-02 -3.9338741326359568e-02  -1.3905078693538925e-01 -3.2899805715594699e-02 -3.2899805715594574e-02  -1.3922701377757796e-01 -3.9338741326359741e-02 -3.2897976489199815e-02  -1.5350176028905230e-01 -3.9500517395107376e-02 -3.9500517395107210e-02  -1.5331862525142559e-01 -3.3040884314132817e-02 -3.9495976469813183e-02  -1.5315050253607693e-01 -3.3037880891785429e-02 -3.3037880891785353e-02  -1.5331862525142542e-01 -3.9495976469813288e-02 -3.3040884314132768e-02  -8.3705031171857666e-02 -2.6422801867704213e-02 -3.8815979084205900e-02  -8.3229583609110980e-02 -2.6301989043528609e-02 -3.2705217275851045e-02  -7.0496538676383530e-02 -2.6199242034820599e-02 -3.8438347200813253e-02  -6.9738310674896081e-02 -2.6021314253305023e-02 -3.2459103196735783e-02  -9.7210564804897842e-02 -2.6464921311745750e-02 -3.9014380252320645e-02  -9.6906708398379657e-02 -2.6389157862386554e-02 -3.2789663569643600e-02  -1.1095171666939392e-01 -2.6437260017627476e-02 -3.9124882561546767e-02  -1.1074304014091370e-01 -2.6396469629640758e-02 -3.2809453158311491e-02  -1.2487313610542725e-01 -2.6409575755483576e-02 -3.9210981146077864e-02  -1.2471104005501825e-01 -2.6395886644507458e-02 -3.2827153003028936e-02  -1.3893034624458017e-01 -2.6427275202291718e-02 -3.9315378225909463e-02  -1.3878337865762183e-01 -2.6435993542412224e-02 -3.2882077161318690e-02  -1.5304984900600493e-01 -2.6564298584069220e-02 -3.9442593901522445e-02  -1.5291120918401380e-01 -2.6569601962008183e-02 -3.2997923296888651e-02  -8.2799456128294979e-02 -2.0076778142302586e-02 -3.9152453690888149e-02  -8.2397635307490516e-02 -1.9913286655492447e-02 -3.3018742728560826e-02  -6.9314970638092485e-02 -1.9930122012871296e-02 -3.8962111835075301e-02  -6.8646059057390102e-02 -1.9691715158523821e-02 -3.2950445707186547e-02  -9.6527977731544021e-02 -2.0062428394443620e-02 -3.9213495285354234e-02  -9.6282648568113832e-02 -1.9959448309779436e-02 -3.2973489892055431e-02  -1.1043191250613793e-01 -1.9991508007749657e-02 -3.9224499668390339e-02  -1.1026954318651701e-01 -1.9935912375212195e-02 -3.2901114657142010e-02  -1.2446155846846586e-01 -1.9927033965433823e-02 -3.9236520588821967e-02  -1.2433724153502371e-01 -1.9908885140371712e-02 -3.2852348191386313e-02  -1.3857734003451977e-01 -1.9917771664571756e-02 -3.9278427942956183e-02  -1.3846751079553427e-01 -1.9928348251983974e-02 -3.2857031534444442e-02  -1.5273321442151372e-01 -2.0042861660578667e-02 -3.9354847476402395e-02  -1.5263513213589150e-01 -2.0056175233863757e-02 -3.2933973911301054e-02  -8.2023338543260632e-02 -1.3537315992787083e-02 -3.9480011099342266e-02  -8.1688580876232472e-02 -1.3389662980671031e-02 -3.3336462998474016e-02  -6.8347731757120667e-02 -1.3440548882899589e-02 -3.9455777031756858e-02  -6.7756300817404844e-02 -1.3228570172327038e-02 -3.3431183279347389e-02  -9.5922547711235595e-02 -1.3509835867986044e-02 -3.9412794194946150e-02  -9.5731973362474271e-02 -1.3415871469900226e-02 -3.3166034056972452e-02  -1.0995873633788339e-01 -1.3439759308254209e-02 -3.9327134239742802e-02  -1.0984045134715273e-01 -1.3388558048218865e-02 -3.3000817874902715e-02  -1.2407879751417668e-01 -1.3376351481515614e-02 -3.9263964849255199e-02  -1.2399120622472587e-01 -1.3359589898519039e-02 -3.2882514331480289e-02  -1.3824646393479523e-01 -1.3363076935230830e-02 -3.9241670389003100e-02  -1.3817207754950106e-01 -1.3371265928464559e-02 -3.2834251260319310e-02  -1.5243836408597189e-01 -1.3460887873672190e-02 -3.9267466523884791e-02  -1.5237936527724935e-01 -1.3475542570504321e-02 -3.2873161738123699e-02  -8.1507139082501873e-02 -6.8616970226602165e-03 -3.9710639365165640e-02  -8.1218441206268754e-02 -6.7767881974933461e-03 -3.3563314552511526e-02  -6.7723880566492339e-02 -6.8114980340527763e-03 -3.9796496485653372e-02  -6.7183593338614914e-02 -6.6909898200652211e-03 -3.3767395294686926e-02  -9.5510162804756604e-02 -6.8451118283002245e-03 -3.9555303541546044e-02  -9.5357925955604050e-02 -6.7906670540720674e-03 -3.3306028692348971e-02  -1.0963017679464310e-01 -6.8060980214377778e-03 -3.9401380925444686e-02  -1.0954314958881281e-01 -6.7761696254687595e-03 -3.3074505251450420e-02  -1.2380854855318989e-01 -6.7712467777268238e-03 -3.9283768676739099e-02  -1.2374746473931643e-01 -6.7615106489866354e-03 -3.2905505764220466e-02  -1.3801174615982253e-01 -6.7684652300931854e-03 -3.9215197411231910e-02  -1.3796231342020140e-01 -6.7716786273974141e-03 -3.2818712529551923e-02  -1.5222918509467726e-01 -6.8235827403038936e-03 -3.9204835632047269e-02  -1.5219788217429819e-01 -6.8343353831945486e-03 -3.2830484041407891e-02  -8.3229583609111077e-02 -3.2705217275851156e-02 -2.6301989043528547e-02  -8.3705031171857666e-02 -3.8815979084206094e-02 -2.6422801867704182e-02  -7.0496538676383710e-02 -3.8438347200813378e-02 -2.6199242034820137e-02  -6.9738310674896040e-02 -3.2459103196735790e-02 -2.6021314253305023e-02  -9.6906708398379560e-02 -3.2789663569643697e-02 -2.6389157862386412e-02  -9.7210564804897703e-02 -3.9014380252320811e-02 -2.6464921311745541e-02  -1.1074304014091374e-01 -3.2809453158311686e-02 -2.6396469629640602e-02  -1.1095171666939396e-01 -3.9124882561546871e-02 -2.6437260017627202e-02  -1.2471104005501817e-01 -3.2827153003029068e-02 -2.6395886644507385e-02  -1.2487313610542712e-01 -3.9210981146078051e-02 -2.6409575755483590e-02  -1.3878337865762186e-01 -3.2882077161318808e-02 -2.6435993542412106e-02  -1.3893034624458001e-01 -3.9315378225909643e-02 -2.6427275202291611e-02  -1.5291120918401366e-01 -3.2997923296888707e-02 -2.6569601962007992e-02  -1.5304984900600480e-01 -3.9442593901522612e-02 -2.6564298584068800e-02  -8.2459540119202632e-02 -2.6437969142081869e-02 -2.6437969142081783e-02  -6.8642624083070342e-02 -2.6250497348872921e-02 -2.6250497348872866e-02  -9.6365446224871379e-02 -2.6462539453827410e-02 -2.6462539453827361e-02  -1.1035217234319464e-01 -2.6429344036162570e-02 -2.6429344036162473e-02  -1.2441402340621004e-01 -2.6402441463019656e-02 -2.6402441463019424e-02  -1.3854170750119549e-01 -2.6422226362783564e-02 -2.6422226362783307e-02  -1.5270331140848117e-01 -2.6534846169243145e-02 -2.6534846169242877e-02  -8.1630082838083373e-02 -2.0001031020981146e-02 -2.6698954946271426e-02  -6.7537391812299855e-02 -1.9840370375687533e-02 -2.6655585352306947e-02  -9.5752853235086505e-02 -2.0006212136736992e-02 -2.6616400309782549e-02  -1.0989416575874604e-01 -1.9956676225869066e-02 -2.6507154877342943e-02  -1.2405865012334590e-01 -1.9912815518427055e-02 -2.6426059596300192e-02  -1.3824841668413734e-01 -1.9917535548606417e-02 -2.6406232421553006e-02  -1.5245861774681535e-01 -2.0026185494603371e-02 -2.6490476728546371e-02  -8.0918918688076408e-02 -1.3439006420606466e-02 -2.6970770415031192e-02  -6.6632930540054328e-02 -1.3313140946418443e-02 -2.7064162110843847e-02  -9.5207990884614388e-02 -1.3441795419242751e-02 -2.6781947912004916e-02  -1.0947506993255827e-01 -1.3399822429239573e-02 -2.6594147221023195e-02  -1.2372569651500871e-01 -1.3361134898806831e-02 -2.6455551024846209e-02  -1.3797030505854924e-01 -1.3363256205876632e-02 -2.6394367381143348e-02  -1.5222837828016028e-01 -1.3452431508044142e-02 -2.6453234775558540e-02  -8.0446917152179359e-02 -6.8010554809350620e-03 -2.7166743863199814e-02  -6.6050553713240617e-02 -6.7322334036651055e-03 -2.7353494367892535e-02  -9.4836932151201134e-02 -6.8035565674251621e-03 -2.6903441162060841e-02  -1.0918366097606516e-01 -6.7817934420525460e-03 -2.6659119202111860e-02  -1.2348996274972780e-01 -6.7619540308214076e-03 -2.6478511820688975e-02  -1.3777158166041520e-01 -6.7669530131841821e-03 -2.6387482902021139e-02  -1.5206362508533955e-01 -6.8203326281760877e-03 -2.6428965790332364e-02  -8.2397635307490447e-02 -3.3018742728560972e-02 -1.9913286655492468e-02  -8.2799456128295090e-02 -3.9152453690888329e-02 -2.0076778142302402e-02  -6.9314970638092638e-02 -3.8962111835075364e-02 -1.9930122012871584e-02  -6.8646059057390005e-02 -3.2950445707186547e-02 -1.9691715158523835e-02  -9.6282648568113693e-02 -3.2973489892055514e-02 -1.9959448309779356e-02  -9.6527977731544035e-02 -3.9213495285354408e-02 -2.0062428394443520e-02  -1.1026954318651734e-01 -3.2901114657142114e-02 -1.9935912375212080e-02  -1.1043191250613808e-01 -3.9224499668390478e-02 -1.9991508007749625e-02  -1.2433724153502360e-01 -3.2852348191386493e-02 -1.9908885140371532e-02  -1.2446155846846597e-01 -3.9236520588822127e-02 -1.9927033965433608e-02  -1.3846751079553427e-01 -3.2857031534444622e-02 -1.9928348251983662e-02  -1.3857734003451969e-01 -3.9278427942956280e-02 -1.9917771664571510e-02  -1.5263513213589158e-01 -3.2933973911301199e-02 -2.0056175233863494e-02  -1.5273321442151358e-01 -3.9354847476402340e-02 -2.0042861660578726e-02  -8.1630082838083401e-02 -2.6698954946271589e-02 -2.0001031020981098e-02  -6.7537391812300049e-02 -2.6655585352307089e-02 -1.9840370375687429e-02  -9.5752853235086560e-02 -2.6616400309782677e-02 -2.0006212136736902e-02  -1.0989416575874615e-01 -2.6507154877343155e-02 -1.9956676225868979e-02  -1.2405865012334577e-01 -2.6426059596300230e-02 -1.9912815518426993e-02  -1.3824841668413740e-01 -2.6406232421553089e-02 -1.9917535548606310e-02  -1.5245861774681529e-01 -2.6490476728546406e-02 -2.0026185494603357e-02  -8.0778519875894267e-02 -2.0196550846032234e-02 -2.0196550846032259e-02  -6.6390801619512926e-02 -2.0140459850893765e-02 -2.0140459850893910e-02  -9.5132239984695180e-02 -2.0122350460614672e-02 -2.0122350460614488e-02  -1.0943709054944419e-01 -2.0016072994207258e-02 -2.0016072994207223e-02  -1.2371069789930089e-01 -1.9931589672299306e-02 -1.9931589672299084e-02  -1.3796903787915313e-01 -1.9906372857156546e-02 -1.9906372857156289e-02  -1.5223583861150439e-01 -1.9993587215496645e-02 -1.9993587215496465e-02  -8.0042771994127918e-02 -1.3566514619586670e-02 -2.0408130283165196e-02  -6.5445764957238875e-02 -1.3507604313764011e-02 -2.0455874207521835e-02  -9.4574904110848956e-02 -1.3518017482470442e-02 -2.0252157101634423e-02  -1.0901401641721974e-01 -1.3438915612676433e-02 -2.0085265411138104e-02  -1.2338012680161291e-01 -1.3373294327970067e-02 -1.9956691604382633e-02  -1.3769916885408787e-01 -1.3355188421163082e-02 -1.9900505576726173e-02  -1.5202091767246378e-01 -1.3429781393512672e-02 -1.9969600244163443e-02  -7.9553840414337704e-02 -6.8624816139786987e-03 -2.0561728166553665e-02  -6.4836737451110113e-02 -6.8258245780300035e-03 -2.0681140888767977e-02  -9.4194452088941533e-02 -6.8402183172932085e-03 -2.0348100175577161e-02  -1.0871889415166411e-01 -6.8002723599326857e-03 -2.0137389937184058e-02  -1.2314497063961738e-01 -6.7670714093343211e-03 -1.9976618047476614e-02  -1.3750498296842803e-01 -6.7619224369013901e-03 -1.9898311688293212e-02  -1.5186566871198878e-01 -6.8079375233685907e-03 -1.9955319228401869e-02  -8.1688580876232528e-02 -3.3336462998474009e-02 -1.3389662980670810e-02  -8.2023338543260368e-02 -3.9480011099342481e-02 -1.3537315992787140e-02  -6.8347731757120861e-02 -3.9455777031757185e-02 -1.3440548882899405e-02  -6.7756300817404871e-02 -3.3431183279347326e-02 -1.3228570172327047e-02  -9.5731973362474521e-02 -3.3166034056972542e-02 -1.3415871469900116e-02  -9.5922547711235637e-02 -3.9412794194946192e-02 -1.3509835867985836e-02  -1.0984045134715259e-01 -3.3000817874902819e-02 -1.3388558048218762e-02  -1.0995873633788340e-01 -3.9327134239742878e-02 -1.3439759308253897e-02  -1.2399120622472583e-01 -3.2882514331480477e-02 -1.3359589898518869e-02  -1.2407879751417676e-01 -3.9263964849255192e-02 -1.3376351481515295e-02  -1.3817207754950098e-01 -3.2834251260319303e-02 -1.3371265928464549e-02  -1.3824646393479523e-01 -3.9241670389003287e-02 -1.3363076935230658e-02  -1.5237936527724941e-01 -3.2873161738123803e-02 -1.3475542570504307e-02  -1.5243836408597222e-01 -3.9267466523885033e-02 -1.3460887873671890e-02  -8.0918918688076519e-02 -2.6970770415031386e-02 -1.3439006420606320e-02  -6.6632930540054119e-02 -2.7064162110843944e-02 -1.3313140946418426e-02  -9.5207990884614541e-02 -2.6781947912005031e-02 -1.3441795419242623e-02  -1.0947506993255819e-01 -2.6594147221023282e-02 -1.3399822429239367e-02  -1.2372569651500867e-01 -2.6455551024846379e-02 -1.3361134898806588e-02  -1.3797030505854943e-01 -2.6394367381143539e-02 -1.3363256205876422e-02  -1.5222837828016014e-01 -2.6453234775558686e-02 -1.3452431508043931e-02  -8.0042771994127793e-02 -2.0408130283165161e-02 -1.3566514619586426e-02  -6.5445764957238833e-02 -2.0455874207521964e-02 -1.3507604313763829e-02  -9.4574904110848887e-02 -2.0252157101634461e-02 -1.3518017482470435e-02  -1.0901401641721971e-01 -2.0085265411138298e-02 -1.3438915612676254e-02  -1.2338012680161278e-01 -1.9956691604382688e-02 -1.3373294327969855e-02  -1.3769916885408803e-01 -1.9900505576726370e-02 -1.3355188421162909e-02  -1.5202091767246356e-01 -1.9969600244163693e-02 -1.3429781393512348e-02  -7.9278981617480537e-02 -1.3709129461178669e-02 -1.3709129461178481e-02  -6.4458424244237922e-02 -1.3718543002728678e-02 -1.3718543002728607e-02  -9.4000442862568465e-02 -1.3606179597016474e-02 -1.3606179597016278e-02  -1.0858236879708413e-01 -1.3486309576236718e-02 -1.3486309576236628e-02  -1.2304737285117844e-01 -1.3390904962591507e-02 -1.3390904962591347e-02  -1.3743236783601934e-01 -1.3351958969056034e-02 -1.3351958969055841e-02  -1.5181473692465280e-01 -1.3414769900041788e-02 -1.3414769900041671e-02  -7.8770303268454162e-02 -6.9326291841115446e-03 -1.3812318251820981e-02  -6.3821236940001219e-02 -6.9292066598193817e-03 -1.3868922476728262e-02  -9.3607116125850640e-02 -6.8835913892346312e-03 -1.3671047344746766e-02  -1.0828020239607038e-01 -6.8234206064561268e-03 -1.3521822354582647e-02  -1.2280951025132943e-01 -6.7753657637473381e-03 -1.3404868172394609e-02  -1.3723900123859792e-01 -6.7598980802781100e-03 -1.3351266743562374e-02  -1.5166404447233273e-01 -6.8001025205625815e-03 -1.3406491738230275e-02  -8.1218441206268852e-02 -3.3563314552511360e-02 -6.7767881974933695e-03  -8.1507139082501637e-02 -3.9710639365165869e-02 -6.8616970226599728e-03  -6.7723880566492506e-02 -3.9796496485653449e-02 -6.8114980340527867e-03  -6.7183593338614761e-02 -3.3767395294686933e-02 -6.6909898200650650e-03  -9.5357925955604106e-02 -3.3306028692348819e-02 -6.7906670540720058e-03  -9.5510162804756688e-02 -3.9555303541546120e-02 -6.8451118283002488e-03  -1.0954314958881296e-01 -3.3074505251450503e-02 -6.7761696254686728e-03  -1.0963017679464310e-01 -3.9401380925444741e-02 -6.8060980214379252e-03  -1.2374746473931666e-01 -3.2905505764220556e-02 -6.7615106489865877e-03  -1.2380854855319001e-01 -3.9283768676739148e-02 -6.7712467777268906e-03  -1.3796231342020157e-01 -3.2818712529552048e-02 -6.7716786273972684e-03  -1.3801174615982234e-01 -3.9215197411232021e-02 -6.7684652300931715e-03  -1.5219788217429817e-01 -3.2830484041407988e-02 -6.8343353831941903e-03  -1.5222918509467750e-01 -3.9204835632047248e-02 -6.8235827403036273e-03  -8.0446917152179345e-02 -2.7166743863200126e-02 -6.8010554809349744e-03  -6.6050553713240714e-02 -2.7353494367892705e-02 -6.7322334036649311e-03  -9.4836932151201050e-02 -2.6903441162061236e-02 -6.8035565674251768e-03  -1.0918366097606526e-01 -2.6659119202112006e-02 -6.7817934420525165e-03  -1.2348996274972789e-01 -2.6478511820689110e-02 -6.7619540308212463e-03  -1.3777158166041523e-01 -2.6387482902021215e-02 -6.7669530131840632e-03  -1.5206362508533955e-01 -2.6428965790332572e-02 -6.8203326281756965e-03  -7.9553840414337565e-02 -2.0561728166553619e-02 -6.8624816139787118e-03  -6.4836737451110044e-02 -2.0681140888768004e-02 -6.8258245780300174e-03  -9.4194452088941782e-02 -2.0348100175577088e-02 -6.8402183172931123e-03  -1.0871889415166404e-01 -2.0137389937184159e-02 -6.8002723599324740e-03  -1.2314497063961762e-01 -1.9976618047476715e-02 -6.7670714093343107e-03  -1.3750498296842759e-01 -1.9898311688293372e-02 -6.7619224369012479e-03  -1.5186566871198864e-01 -1.9955319228401960e-02 -6.8079375233685074e-03  -7.8770303268454356e-02 -1.3812318251821146e-02 -6.9326291841115568e-03  -6.3821236940001261e-02 -1.3868922476728220e-02 -6.9292066598193895e-03  -9.3607116125850737e-02 -1.3671047344747007e-02 -6.8835913892345809e-03  -1.0828020239607028e-01 -1.3521822354582715e-02 -6.8234206064559698e-03  -1.2280951025132933e-01 -1.3404868172394885e-02 -6.7753657637471716e-03  -1.3723900123859781e-01 -1.3351266743562688e-02 -6.7598980802778845e-03  -1.5166404447233259e-01 -1.3406491738230362e-02 -6.8001025205623256e-03  -7.8247944693463536e-02 -6.9825371713993526e-03 -6.9825371713992633e-03  -6.3165287360710531e-02 -7.0018860655302476e-03 -7.0018860655300750e-03  -9.3204381576596176e-02 -6.9148635456353575e-03 -6.9148635456353228e-03  -1.0797257783298392e-01 -6.8403644317930031e-03 -6.8403644317928287e-03  -1.2256905742633635e-01 -6.7817937314321617e-03 -6.7817937314320290e-03  -1.3704532820810500e-01 -6.7592392256855148e-03 -6.7592392256854393e-03  -1.5151548017422922e-01 -6.7958182135562034e-03 -6.7958182135557845e-03  -1.0786022231304665e-01 -1.2602528794721174e-04 -6.8454241538913581e-03  -1.2247901911415107e-01 -1.3234773626371034e-04 -6.7835092140577195e-03  -1.3697179125574929e-01 -1.4269812113405547e-04 -6.7587403342947126e-03  -1.5145792409742562e-01 -1.5042145869587943e-04 -6.7941959704279241e-03  -8.1052919387485156e-02 -3.3642089435712758e-02 -1.2153960057915243e-04  -6.6984390058776114e-02 -3.3884127777458702e-02 -1.2240700329810381e-04  -9.5224139753744219e-02 -3.3354491702041494e-02 -1.2459894299382375e-04  -9.5362960228468824e-02 -3.9604541728612448e-02 -1.2283806158225606e-04  -1.0943483187595571e-01 -3.3099573131358417e-02 -1.3022972351674650e-04  -1.0951087603556306e-01 -3.9426526247627013e-02 -1.2938231130762905e-04  -1.2365680572911357e-01 -3.2912518364498058e-02 -1.3741644091889925e-04  -1.2370816631794447e-01 -3.9289306935109597e-02 -1.3679992630132848e-04  -1.3788344502741717e-01 -3.2812278509625599e-02 -1.4776013890036005e-04  -1.3792432742515068e-01 -3.9204776169809281e-02 -1.5030808787294016e-04  -1.5212910636915636e-01 -3.2814498847992792e-02 -1.5733147087905588e-04  -1.5215027271798084e-01 -3.9181714070061005e-02 -1.5361226945378702e-04  -8.0279535275450509e-02 -2.7233870391492915e-02 -1.2896066526062178e-04  -6.5846647354662419e-02 -2.7452783299409783e-02 -1.3331686214305055e-04  -9.4703090090856729e-02 -2.6944917604204571e-02 -1.2917685394690144e-04  -1.0907661931041060e-01 -2.6680933931631536e-02 -1.3259215410803079e-04  -1.2340145628447226e-01 -2.648565669