<?xml version="1.0"?>
<VTKFile type="UnstructuredGrid"  version="0.1"  >
<UnstructuredGrid>
<Piece  NumberOfPoints="656" NumberOfCells="2688">
<Points>
<DataArray  type="Float64"  NumberOfComponents="3"  format="ascii">0.5532719614257552 0.4224871526133092 0.03287244648123627  0.647098107782945 0.4225662512993568 0.03287654923533079  0.6468997637634661 0.5003448460537844 0.03294416274502408  0.646562214127187 0.5003443106640735 0.1112907046684482  0.6467457460920277 0.4224976005722608 0.1112240422582286  0.55266419966608 0.4223926390874791 0.1113282657225824  0.5530533156779844 0.500324628295753 0.03296896440854366  0.5524599769583295 0.500324524776819 0.1114232545667616  0.7411226071733281 0.4225779485014975 0.03278263686432311  0.740947344810963 0.5003674836306996 0.0328239570122913  0.7407485834578111 0.5003666449376324 0.1110726340193739  0.7409099262950051 0.422534238069883 0.1110315014464657  0.8352651760592452 0.4225665731348057 0.03267444622106652  0.8351096624329277 0.5003927472518249 0.0326927439527082  0.8349731307737227 0.5003914850565115 0.1108641193923407  0.8351157660825667 0.4225453482985481 0.1108449726136763  0.9294763163496867 0.4225626629481808 0.03260505032791785  0.9293341633126402 0.5004188115566157 0.03260242225680746  0.9292159736459074 0.5004180084965411 0.1107240289596518  0.9293455329909066 0.4225625493951891 0.1107239399105936  1.023725669526608 0.4226041365179567 0.0325975963523162  1.023592157449603 0.5004522448099539 0.03257532794368508  1.023478673711739 0.5004483431380868 0.1106898051002562  1.023599428170997 0.4226191816418319 0.1107059852220736  1.118004713087809 0.4227287109402486 0.03266313183727764  1.117876326165165 0.500469156362694 0.03262109240617671  1.117781874199503 0.5004779799161255 0.1107874443344419  1.117893479742443 0.422755237854734 0.1108179658160369  0.6470448515187952 0.5781243325134806 0.03287584604447662  0.6466934965358591 0.5781913158547214 0.1112231859639127  0.5532180005907251 0.578163842957271 0.03287437208344433  0.5526109199241185 0.5782570211425273 0.1113296917283048  0.7410699689259318 0.5781573206936096 0.03278037655278447  0.7408583287357103 0.5781991628452878 0.1110293645048222  0.8352132305936113 0.578218579974577 0.03267137570709047  0.8350647143946848 0.5782374537118766 0.1108420895739767  0.9294245972508024 0.5782744091383412 0.03260087703915305  0.9292948556927457 0.5782730893991997 0.1107202316142103  1.023676998255415 0.5782980523933918 0.03259382385383578  1.023550056445441 0.5782761589029242 0.1107021098749654  1.117953020262494 0.578209517239139 0.03265760870477429  1.117844729165493 0.5781984327938362 0.1108122122261074  0.6475131274773277 0.6559580040634533 0.0326837648452987  0.6471220529733381 0.6560735830214026 0.1110346847406854  0.5537528723800169 0.6560491200969764 0.03260249537616888  0.55310612574271 0.6562108754984987 0.111062858363302  0.741467392070797 0.6559957097028146 0.03266069889594573  0.7412188950931813 0.6560678264420929 0.1109112621873324  0.8355519667259819 0.6560805387018547 0.03261487714571927  0.8353694864244265 0.6561137521168168 0.1107841701852498  0.929723485393005 0.656153955221754 0.03260040710565663  0.9295610627408004 0.6561523939353848 0.1107135096218948  1.023956055528312 0.6561621182050321 0.03264807304681176  1.023792874239126 0.6561287232345172 0.110739747170833  1.118212565307568 0.6559910023186747 0.03276341444482291  1.118063015770908 0.6559641758766371 0.110886100908441  0.6482392870304277 0.7339045313380408 0.03240697214024463  0.6477907179185725 0.7340330778617323 0.110766953252945  0.5546108284799447 0.7340405397723262 0.03220019681195092  0.5539050931522344 0.734222590838999 0.1106736949380353  0.742068707948404 0.733930704126276 0.03249233781824647  0.7417679600469624 0.7340102625019932 0.1107475861915274  0.8360549797702026 0.7340132615945599 0.03253750464495347  0.8358252937597384 0.7340500792045185 0.1107062414743284  0.9301615119703359 0.7340796333689623 0.03260151410953032  0.929954041420469 0.7340782153115378 0.1107066499452967  1.024361096102918 0.7340606676632077 0.0327232702629265  1.024148513254565 0.7340265845891396 0.1107931665392436  1.118591638501015 0.733843576112176 0.03291007752313405  1.118383663040647 0.7338108137370548 0.1109903528306018  0.649105243304785 0.8120219585240046 0.03211348170280089  0.6485944688455456 0.8121186600862523 0.1104939360897173  0.5556879626327834 0.8122158776219731 0.03175691164552292  0.5549175748900324 0.8123532691298955 0.1102600707003878  0.7427590064961027 0.8120019339012956 0.03231995499783723  0.7424024229774107 0.8120617586299885 0.1105870755213831  0.8366167451162025 0.8120426338557447 0.03246144495191888  0.8363371737989962 0.8120707560568513 0.1106335706297934  0.9306410887114295 0.8120672883728925 0.03260436551387563  0.9303863819228821 0.8120665420991958 0.1107033613515685  1.024795757853526 0.8120033844538483 0.03279612074977086  1.024533559782243 0.8119801225014528 0.1108467216854945  1.118999340290768 0.8117748358891368 0.03305328112904702  1.118732114224366 0.811749146843427 0.1110957027146001  0.6499381479208733 0.8903520664510396 0.03189831790373857  0.6493721871391689 0.8903743980368629 0.1103194826940204  0.5568076882818566 0.8906560962353417 0.031408888396938  0.55597828754229 0.8906819267753877 0.1099758729646932  0.7433850872525727 0.8902280847961513 0.03220331414983186  0.7429806273937475 0.8902442682643472 0.1104927287481118  0.8371062814765623 0.8901762714410933 0.03241803786753306  0.8367859295778375 0.8901857683837824 0.1105972123407831  0.9310496075558673 0.8901199894761589 0.03261532649579255  0.9307582422596199 0.8901213670604057 0.1107090129968367  1.025159765525061 0.8899913679924641 0.03284752786602885  1.024862302738659 0.8899873221844924 0.110884595469641  1.11934617561753 0.8897607410323868 0.03314543169573583  1.119038648043273 0.889755003383657 0.11116787260608  0.6504955509742542 0.9688391559076986 0.03183079989974503  0.6499158577057711 0.9688014783264219 0.1103377218860964  0.5576553276804025 0.9693229024974752 0.03129559211860757  0.5568148100605418 0.969255586119577 0.1099921450873764  0.7437649162565261 0.9685546973094286 0.03216759373671313  0.74334785400102 0.9685382278902829 0.1105083022764662  0.8373939938008342 0.968368868497406 0.03240499777433137  0.837061937726577 0.9683678923138109 0.1106078108203291  0.9313085770976492 0.9682076202502293 0.03261747044349218  0.9310029229324275 0.9682169937965071 0.1107126736601992  1.025422726911586 0.9680131138269824 0.03285818690447154  1.02510674233605 0.9680282996325299 0.1108823873684074  1.119617924797914 0.9677678721855405 0.03316144039536714  1.119290581488326 0.9677804577465866 0.1111680704495963  0.6457379994492709 0.5003487286145787 0.1893778102611808  0.6459236183860291 0.4225198027101453 0.1893199626106432  0.5515302841422082 0.4224260807564728 0.1894064950498063  0.5513222316677567 0.5003307712870729 0.1894884673123784  0.7401450170015044 0.5003692322834502 0.1891610497911884  0.7403068352297402 0.4225476553721039 0.1891250229518603  0.8345155254382203 0.5003925159090157 0.1889457258887325  0.8346572360055079 0.4225524562030181 0.1889283187622803  0.9288529168059398 0.5004172179761781 0.1887986680272738  0.9289803075945753 0.4225644999662179 0.1887969022912915  1.023181900227269 0.5004468524330825 0.1887675490902458  1.023298754435549 0.4226153434358944 0.1887780539651375  1.117548908037361 0.5004735699783068 0.1889206920238543  1.117654378277181 0.4227383794279922 0.1889393081513303  0.6458686692349235 0.5781771843003647 0.1893178360364768  0.5514738110215506 0.5782352476105852 0.189405807654914  0.7402531417671178 0.5781903474330748 0.18912216939328  0.8346046198937761 0.578232067361229 0.1889251466857571  0.9289281712178145 0.5782695754551618 0.188793341959607  1.023248246912907 0.5782770887502654 0.1887749528781181  1.117603720970848 0.5782069719903018 0.1889361663042034  0.6462992910714696 0.6560316561066374 0.1891527890150764  0.5519756695275001 0.6561467573832952 0.1891737873192636  0.7406119305480439 0.6560423777129153 0.1890175511519362  0.8349044024063332 0.6560997854371432 0.188871841894733  0.9291859613771755 0.6561463591278126 0.1887824886151886  1.02347832164091 0.6561330955978146 0.1887986199377514  1.117801586242205 0.6559859344504209 0.1889823187991767  0.6469748439403027 0.7339496566233864 0.1889227452290477  0.5527907868142899 0.734093390843534 0.1888423788374501  0.7411605085958483 0.7339610139831542 0.1888751454397633  0.8353539050007447 0.7340251153989877 0.1888014607131112  0.9295671092709756 0.7340706566993568 0.1887705422024903  1.023815648314883 0.7340364003636068 0.1888335228241859  1.118093342414212 0.733845996327026 0.189049259148657  0.6477889771976719 0.8119831536650904 0.1886978849309313  0.5538290360672337 0.8121389807056951 0.1885055411741111  0.7417945189905043 0.8119841243564375 0.1887410150695251  0.8358575506137853 0.8120344245605651 0.1887382538619674  0.9299845647643894 0.8120598837686213 0.1887628227612726  1.024178439724333 0.8119983704752157 0.1888697739657683  1.118408912221979 0.8117985344584596 0.1891208350206952  0.6485699415154368 0.8901907487534275 0.1885791151062292  0.5549122065153346 0.8903861510998384 0.1883124005362471  0.7423649571621899 0.8901419739433587 0.1886768017638965  0.8362915747334112 0.8901420682445673 0.1887129901976895  0.9303356105636278 0.8901200504838428 0.188765771244493  1.024479248027486 0.8900187054545466 0.1888954749367524  1.118679660870617 0.8898203590009643 0.1891742889468221  0.6490577785702147 0.9685763175446895 0.1886816460941276  0.5556883227992002 0.9688957377891587 0.1884577317287883  0.7426834435202215 0.968412298859735 0.1887412495306625  0.8365252071544379 0.9683156927598995 0.1887449071223252  0.9305417161605209 0.9682201947673316 0.1887689899299907  1.024686287084113 0.9680740266872143 0.1888759330338318  1.118893582842147 0.9678630911157234 0.1891500075612367  0.6448095557663661 0.5003461774533409 0.2672603120569695  0.6450014576342767 0.42257160517
[...]
<PointData  Vectors="f_35"> 
<DataArray  type="Float64"  Name="f_35"  NumberOfComponents="3" format="ascii">-7.1481992623560267e-02 -8.3858541027469827e-03 -4.7900070812256362e-02  -8.5772616945832880e-02 -8.4670944097515743e-03 -4.7982563259281449e-02  -8.5580084712209931e-02 -3.2171974943657024e-04 -4.8096948168742527e-02  -8.5187586755448144e-02 -3.1537098843841140e-04 -4.0757719146082137e-02  -8.5365825620712932e-02 -8.3475112803645998e-03 -4.0648420009829433e-02  -7.0762463642082746e-02 -8.2295222495129914e-03 -4.0720961964479767e-02  -7.1254469105156551e-02 -3.2980908770136556e-04 -4.8053776044948128e-02  -7.0549596399883063e-02 -3.2368947386714767e-04 -4.0868147465201975e-02  -1.0030556203775186e-01 -8.4489823781969189e-03 -4.7884359169545448e-02  -1.0014970369807188e-01 -3.1392999702453960e-04 -4.7963341486291999e-02  -9.9935857441774911e-02 -3.0813114236934917e-04 -4.0488843988835406e-02  -1.0007935925468819e-01 -8.3640358606171354e-03 -4.0413571257554903e-02  -1.1497945351029658e-01 -8.3924774860478502e-03 -4.7734874390313230e-02  -1.1485531643459140e-01 -3.0735454044935115e-04 -4.7784270783912307e-02  -1.1473453970767705e-01 -3.0236856397233977e-04 -4.0201504499979480e-02  -1.1484871329373664e-01 -8.3365521800463256e-03 -4.0154512459426056e-02  -1.2973334198901276e-01 -8.3343244708510098e-03 -4.7609160443799904e-02  -1.2963335291964193e-01 -3.0126628407549204e-04 -4.7634580348432806e-02  -1.2955492625317380e-01 -2.9784686014841869e-04 -3.9972608262685415e-02  -1.2964720021419096e-01 -8.3016650798656381e-03 -3.9947879287986605e-02  -1.4453282739114315e-01 -8.3062025335099605e-03 -4.7541487075007535e-02  -1.4445122766839108e-01 -3.0152028041674039e-04 -4.7549362363958063e-02  -1.4439013069227893e-01 -2.9738114169164967e-04 -3.9843940349460885e-02  -1.4446665601731010e-01 -8.2890813952772504e-03 -3.9834468056724200e-02  -1.5935743764563798e-01 -8.3386174484461600e-03 -4.7542376054802438e-02  -1.5929053400266061e-01 -2.9827067984511808e-04 -4.7540211098671126e-02  -1.5924858742820019e-01 -2.9790693484068551e-04 -3.9846883674169505e-02  -1.5931121508532239e-01 -8.3287227135970913e-03 -3.9844476850222348e-02  -8.5744850447830215e-02 7.8230433957301622e-03 -4.7994327121727701e-02  -8.5340692953102218e-02 7.7173236459239271e-03 -4.0657492903622784e-02  -7.1449658893305179e-02 7.7247896085710210e-03 -4.7917033562489539e-02  -7.0732016691580163e-02 7.5827846930894751e-03 -4.0734322740058289e-02  -1.0028134846738054e-01 7.8208334545313753e-03 -4.7891977633653882e-02  -1.0005803843442015e-01 7.7480531211264261e-03 -4.0419315252420152e-02  -1.1495772928799439e-01 7.7777812043422984e-03 -4.7739105850129172e-02  -1.1483001348413754e-01 7.7320109959365824e-03 -4.0157426099923038e-02  -1.2971278536604861e-01 7.7319385638690659e-03 -4.7609910524399286e-02  -1.2963023309772234e-01 7.7062565231073438e-03 -3.9947960193720551e-02  -1.4451563797596881e-01 7.7047969607085993e-03 -4.7540603220511950e-02  -1.4445167993387042e-01 7.6955809118712110e-03 -3.9832250185167388e-02  -1.5934175171324741e-01 7.7438432909474790e-03 -4.7536847464056661e-02  -1.5929736352068599e-01 7.7350609143567155e-03 -3.9839412518635098e-02  -8.6247041632434684e-02 1.5874863698902199e-02 -4.7694869380718929e-02  -8.5807784228806264e-02 1.5689657799508486e-02 -4.0369106810077736e-02  -7.2053857043951133e-02 1.5694196294503221e-02 -4.7511479648440179e-02  -7.1298211620080834e-02 1.5444545379746490e-02 -4.0342962524744896e-02  -1.0067948329433350e-01 1.5872405947356158e-02 -4.7686560224312106e-02  -1.0042720620868673e-01 1.5744971305026483e-02 -4.0222013126523376e-02  -1.1526705985132379e-01 1.5797138177407983e-02 -4.7610931175480639e-02  -1.1511736078319926e-01 1.5716586593920261e-02 -4.0034340002059791e-02  -1.2995429429948469e-01 1.5716433182261076e-02 -4.7542239955160027e-02  -1.2985702355221479e-01 1.5671389470847764e-02 -3.9881510346380170e-02  -1.4471119543807048e-01 1.5673972348373495e-02 -4.7518572907603411e-02  -1.4463722524136269e-01 1.5656088093607426e-02 -3.9803726335020849e-02  -1.5949938593058779e-01 1.5742628400598344e-02 -4.7534582016003496e-02  -1.5944626687561533e-01 1.5728742352729131e-02 -3.9825342195051433e-02  -8.7020342432921394e-02 2.3741250572389638e-02 -4.7262044078438696e-02  -8.6530186612832252e-02 2.3536820754167753e-02 -3.9959202144088601e-02  -7.3015747863257430e-02 2.3480790532389613e-02 -4.6909491578087506e-02  -7.2203426025841067e-02 2.3201419277331953e-02 -3.9771627746683046e-02  -1.0127748715732914e-01 2.3764661634071486e-02 -4.7396255641715165e-02  -1.0098379705221898e-01 2.3625572979342955e-02 -3.9947999287281932e-02  -1.1572297259764117e-01 2.3693702891183090e-02 -4.7433513753212572e-02  -1.1554196073797969e-01 2.3606461539414009e-02 -3.9867265492356536e-02  -1.3030583767778350e-01 2.3612038416845317e-02 -4.7451327549338368e-02  -1.3018703653522165e-01 2.3564334560802393e-02 -3.9794291315312244e-02  -1.4499426209811889e-01 2.3576525154912726e-02 -4.7491761405654379e-02  -1.4490508398888127e-01 2.3557780204266753e-02 -3.9769458881537573e-02  -1.5972933024147157e-01 2.3663954977259306e-02 -4.7538223826748799e-02  -1.5966209235899478e-01 2.3651052718040917e-02 -3.9812600667478264e-02  -8.7945302978568729e-02 3.1341951448615998e-02 -4.6805614651103000e-02  -8.7400278467351142e-02 3.1193030716016260e-02 -3.9544402526466613e-02  -7.4224277316628950e-02 3.0976534805146009e-02 -4.6248490801086055e-02  -7.3349868712218741e-02 3.0771001817738640e-02 -3.9168191088456226e-02  -1.0196630008665250e-01 3.1442184289796414e-02 -4.7100619726444221e-02  -1.0162833145182981e-01 3.1342131121121421e-02 -3.9681125276061824e-02  -1.1623272935602157e-01 3.1430681134128953e-02 -4.7258761724435570e-02  -1.1601828288097399e-01 3.1368850276047765e-02 -3.9710848907652932e-02  -1.3069048801332542e-01 3.1396272069739412e-02 -4.7365315734035594e-02  -1.3054769868818561e-01 3.1364289315632905e-02 -3.9716941704236106e-02  -1.4529902425213739e-01 3.1401236758098174e-02 -4.7469543650386865e-02  -1.4519259729535416e-01 3.1388860269886201e-02 -3.9743319159671102e-02  -1.5997959770071787e-01 3.1494758437631713e-02 -4.7550612544554310e-02  -1.5989546027949203e-01 3.1488427870401813e-02 -3.9809510815744138e-02  -8.8847712253561154e-02 3.8630946524634134e-02 -4.6474153472280073e-02  -8.8253583358008550e-02 3.8607373938895739e-02 -3.9285870307435515e-02  -7.5492920320806914e-02 3.8085563594695185e-02 -4.5733827764841979e-02  -7.4560761347911855e-02 3.8059792316456252e-02 -3.8762199312080463e-02  -1.0260026566928145e-01 3.8887156973641084e-02 -4.6900070496939554e-02  -1.0222378094187734e-01 3.8869872822915479e-02 -3.9527604069869389e-02  -1.1668048631952536e-01 3.9003934341586978e-02 -4.7148996603151951e-02  -1.1643750661587619e-01 3.8993069620795948e-02 -3.9629700602564731e-02  -1.3101712078212563e-01 3.9072292839847519e-02 -4.7315674007376879e-02  -1.3085239940722188e-01 3.9068927517253361e-02 -3.9683150785213658e-02  -1.4554871329113089e-01 3.9154840632357489e-02 -4.7458310356672272e-02  -1.4542712520716283e-01 3.9155027099685595e-02 -3.9738306974678568e-02  -1.6019322690982943e-01 3.9249027042553626e-02 -4.7565348920771980e-02  -1.6009276638591138e-01 3.9256131217906290e-02 -3.9818703294144400e-02  -8.9490455724320031e-02 4.5706205501087310e-02 -4.6385501360589727e-02  -8.8881841092421199e-02 4.5787299766837201e-02 -3.9333944354608019e-02  -7.6498579211210491e-02 4.4892165480172018e-02 -4.5582339068206364e-02  -7.5551027991342140e-02 4.5020639259524049e-02 -3.8811900780479094e-02  -1.0301184692041368e-01 4.6186399664847104e-02 -4.6852589422647903e-02  -1.0262378457410488e-01 4.6236436146019848e-02 -3.9569062672981208e-02  -1.1695275453295645e-01 4.6478870975161589e-02 -4.7127787711407333e-02  -1.1670077713420314e-01 4.6508543342289287e-02 -3.9662784052268037e-02  -1.3121046929585320e-01 4.6680558083922283e-02 -4.7308844082947207e-02  -1.3103710564091170e-01 4.6698729885306538e-02 -3.9707066396322821e-02  -1.4568694223072157e-01 4.6859441803358513e-02 -4.7455504427024855e-02  -1.4556190296754554e-01 4.6869465204682777e-02 -3.9755671405788715e-02  -1.6030941742836358e-01 4.6995511150390398e-02 -4.7573126592662801e-02  -1.6021107735339674e-01 4.7013847496854479e-02 -3.9829870200014085e-02  -8.4308840965214377e-02 -3.1778645438728422e-04 -3.3049112334354397e-02  -8.4489730237773467e-02 -8.3711990613007294e-03 -3.2956492033806392e-02  -6.9515257988572721e-02 -8.2670773490107000e-03 -3.3023374928332530e-02  -6.9298876437836360e-02 -3.2849911645869132e-04 -3.3148034618371375e-02  -9.9325607252600714e-02 -3.0862408968175249e-04 -3.2771103413438703e-02  -9.9470936606608953e-02 -8.3772113571924690e-03 -3.2707357283915793e-02  -1.1430750010697416e-01 -3.0146691000623331e-04 -3.2465835822088049e-02  -1.1442286063944851e-01 -8.3419579830873170e-03 -3.2425898147254377e-02  -1.2924868106208873e-01 -2.9556612303977448e-04 -3.2217426010342706e-02  -1.2934171176321371e-01 -8.3012510736254728e-03 -3.2195759399939565e-02  -1.4416462351763468e-01 -2.9432156429530309e-04 -3.2076638634062897e-02  -1.4424104440930977e-01 -8.2846587703749187e-03 -3.2066633702967431e-02  -1.5908887370074276e-01 -2.9354838705025689e-04 -3.2107776557671455e-02  -1.5914956550870116e-01 -8.3224499047761420e-03 -3.2101977184932733e-02  -8.4463042459811621e-02 7.7375737338933239e-03 -3.2961326684985776e-02  -6.9482470489076686e-02 7.6122801068898771e-03 -3.3031156830939240e-02  -9.9448897549247850e-02 7.7613544324322834e-03 -3.2709884056331871e-02  -1.1440422541495841e-01 7.7400241653027167e-03 -3.2426533938804396e-02  -1.2932522100510085e-01 7.7108357107958060e-03 -3.2194534619445069e-02  -1.4422702018938105e-01 7.6975160559824129e-03 -3.2064481259035750e-02  -1.5913703641000157e-01 7.7377369618036118e-03 -3.2098659761348305e-02  -8.4936085341630829e-02 1.5749300180735885e-02 -3.2713480168890786e-02  -7.0056163421469073e-02 1.5532274503082887e-02 -3.2695930812121778e-02  -9.9822755050752332e-02 1.5783169354772114e-02 -3.2539684180240842e-02  -1.1469554581716442e-01 1.5738801118991626e-02 -3.2319371574402338e-02  -1.2955529392145737e-01 1.5682578775797248e-02 -3.2134485793471987e-02  -1.4441412076534815e-01 1.5659607473678203e-02 -3.2034721422412933e-02  -1.5928287581101863e-01 1.5731215688303973e-02 -3.2078345930107659e-02  -8.5671130543031784e-02 2.3661305585758397e-02 -3.2368718660711338e-02  -7.0978903340686669e-02 2.3385902552519461e-02 -3.2217763283890928e-02  -1.0038811495442203e-01 2.3704820826622081e-02 -3.2308340612102728e-02  -1.1512643543369551e-01 2.3652827870105201e-02 -3.2177279048695856e-02  -1.2988973020510683e-01 2.3588072261709867e-02 -3.2057824594036596e-02  -1.4468332167776682e-01 2.3566592254108287e-02 -3.1999431207435952e-02  -1.5949301297420806e-01 2.3655141160064209e-02 -3.2056587529030130e-02  -8.6558477894584013e-02 3.1404189253957326e-02 -3.2036340952342590e-02  -7.2153010566473094e-02 3.1088515667980064e-02 -3.1737363607771421e-02  -1.0104276661747483e-01 3.1475316855137027e-02 -3.2093759051012236e-02  -1.1560857196845811e-01 3.1446790490452764e-02 -3.2051180645198393e-02  -1.3025335135680785e-01 3.1404721782292505e-02 -3.1994345021033488e-02  -1.4496990778611010e-01 3.1405421948671929e-02 -3.1974414933993639e-02  -1.5971756325650796e-01 3.1495231408272116e-02 -3.2045384315149257e-02  -8.7421622499898516e-02 3.8905616751897305e-02 -3.1870786601984932e-02  -7.3388273301882731e-02 3.8513794789925455e-02 -3.1475043646033762e-02  -1.0164018065455269e-01 3.9056524742844274e-02 -3.1997908723730553e-02  -1.1602588162307820e-01 3.9101814849604663e-02 -3.2003487858192625e-02  -1.3055398567832482e-01 3.9125088527092254e-02 -3.1977967385106706e-02  -1.4519781978697352e-01 3.9177929328762462e-02 -3.1975789785009132e-02  -1.5990234649024362e-01 3.9264361770781527e-02 -3.2053162748729908e-02  -8.7997487037470956e-02 4.6164137532934087e-02 -3.2053925847970489e-02  -7.4317175159475432e-02 4.5590869564027942e-02 -3.1722757800227902e-02  -1.0199844581403456e-01 4.6474748314565779e-02 -3.2126283234247544e-02  -1.1625725255035489e-01 4.6649484360119196e-02 -3.2088566212366068e-02  -1.3071521103477579e-01 4.6772922383489332e-02 -3.2029693502261272e-02  -1.4531631127985989e-01 4.6899985779244743e-02 -3.2003955619137929e-02  -1.6000510346078720e-01 4.7019502913944272e-02 -3.2064398159470653e-02  -8.3334765573830794e-02 -3.1077733527217508e-04 -2.5061383396613044e-02  -8.3522339511298505e-02 -8.4435825729836309e-03 -2.4990399316669069e-02  -6.8241913689481945e-02 -8.3680842445871123e-03 -2.5000297192836096e-02  -6.8017436171929221e-02 -3.2084879983885784e-04 -2.5095479720818561e-02  -9.8604402872081817e-02 -3.0234218013970810e-04 -2.4838788557321478e-02  -9.8754795358067859e-02 -8.4248435750472663e-03 -2.4789794969146756e-02  -1.1377595982723934e-01 -2.9581982660824372e-04 -2.4574575822115786e-02  -1.1389490649039745e-01 -8.3697859279605186e-03 -2.4543772673609170e-02  -1.2885076104100238e-01 -2.9029862458213214e-04 -2.4351561247302152e-02  -1.2894611845574649e-01 -8.3142511779051385e-03 -2.4334567905077594e-02  -1.4385939735905467e-01 -2.8942037064884438e-04 -2.4226604294746133e-02  -1.4393677946147018e-01 -8.2882598963679322e-03 -2.4218207107077196e-02  -1.5886742991096120e-01 -2.8791242029094872e-04 -2.4274766534591586e-02  -1.5892712487735114e-01 -8.3226548209377350e-03 -2.4269487895213090e-02  -8.3496893358500426e-02 7.8244205925699275e-03 -2.4992434970617844e-02  -6.8209082362526513e-02 7.7293196040067440e-03 -2.5004350361812842e-02  -9.8734736955286298e-02 7.8218468119760735e-03 -2.4790285595817429e-02  -1.1387861888275021e-01 7.7793021735411321e-03 -2.4542966861809661e-02  -1.2893206660627177e-01 7.7344252100736630e-03 -2.4332598021141232e-02  -1.4392539003306232e-01 7.7109682064289238e-03 -2.4215789218729061e-02  -1.5891769884451820e-01 7.7492478144051309e-03 -2.4265564568616400e-02  -8.3992300886229013e-02 1.5922422490114291e-02 -2.4800891478684230e-02  -6.8807507456470685e-02 1.5769936001166232e-02 -2.4747213729941594e-02  -9.9127130874122463e-02 1.5901272765208165e-02 -2.4657766696259225e-02  -1.1418458287522798e-01 1.5813405098291267e-02 -2.4458602581872189e-02  -1.2917317307310483e-01 1.5725322328120066e-02 -2.4284110820242771e-02  -1.4411990049951007e-01 1.5682011997922327e-02 -2.4189940206206868e-02  -1.5906619897106070e-01 1.5748231083061393e-02 -2.4245550914910291e-02  -8.4761536195194026e-02 2.3928300985560789e-02 -2.4539769036994369e-02  -6.9770666991844935e-02 2.3759209768255067e-02 -2.4388628421196636e-02  -9.9719222886550829e-02 2.3883920554980318e-02 -2.4481090880052923e-02  -1.1463549949224708e-01 2.3764016531861512e-02 -2.4349037021599990e-02  -1.2952189789082841e-01 2.3650278130874405e-02 -2.4223709622281167e-02  -1.4439776084859413e-01 2.3597755124521454e-02 -2.4160071678672571e-02  -1.5927780361247026e-01 2.3676229022969855e-02 -2.4224272030285064e-02  -8.5685341533960069e-02 3.1765745596312345e-02 -2.4300314425563643e-02  -7.0992395943609302e-02 3.1603299062220418e-02 -2.4046786844835383e-02  -1.0040006640173189e-01 3.1714194243760534e-02 -2.4325258260019092e-02  -1.1513585484995363e-01 3.1592875869934180e-02 -2.4257073847576929e-02  -1.2989745823412543e-01 3.1484573454562029e-02 -2.4177192914693616e-02  -1.4468993122636273e-01 3.1442962944827471e-02 -2.4141004206017971e-02  -1.5949962137002377e-01 3.1516808665576136e-02 -2.4213977600862316e-02  -8.6561013524867378e-02 3.9348362277433734e-02 -2.4217452939624275e-02  -7.2250409969290788e-02 3.9152110291397646e-02 -2.3911879036457778e-02  -1.0100335723104165e-01 3.9346280851784397e-02 -2.4280340444954397e-02  -1.1555537857187882e-01 3.9277075763282043e-02 -2.4238359589792577e-02  -1.3019784761027367e-01 3.9218121316961459e-02 -2.4175375276979969e-02  -1.4491406001196311e-01 3.9216415103905132e-02 -2.4147903580700965e-02  -1.5967292057033095e-01 3.9279626048385197e-02 -2.4223638106286603e-02  -8.7077937057154289e-02 4.6643937926311427e-02 -2.4461064454290790e-02  -7.3110759273295758e-02 4.6281312573328473e-02 -2.4239732396583100e-02  -1.0131451139492138e-01 4.6790481454827275e-02 -2.4449935025755511e-02  -1.1575100886826328e-01 4.6841761816349060e-02 -2.4349249878196474e-02  -1.3033341379794525e-01 4.6874578150569036e-02 -2.4241373436692880e-02  -1.4501496557023641e-01 4.6935805051890593e-02 -2.4181762756205295e-02  -1.5975522425950411e-01 4.7015725149916629e-02 -2.4237816392388770e-02  -8.2492105860327639e-02 -3.0545011760538054e-04 -1.6886327975974568e-02  -8.2687176455111408e-02 -8.5287229701529257e-03 -1.6839811226387676e-02  -6.7199911763168543e-02 -8.4832005411610949e-03 -1.6810754898555488e-02  -6.6967053917487654e-02 -3.1506395318077110e-04 -1.6873071868050628e-02  -9.7954300534500049e-02 -2.9731041662200308e-04 -1.6740961977755521e-02  -9.8110683839452525e-02 -8.4826923556724446e-03 -1.6708899273408483e-02  -1.1328065682565663e-01 -2.9105680696540079e-04 -1.6552167921759217e-02  -1.1340398254411996e-01 -8.4053415054694929e-03 -1.6532135908953815e-02  -1.2846911535870426e-01 -2.8565671375644806e-04 -1.6386980842965478e-02  -1.2856741738003921e-01 -8.3329832479191544e-03 -1.6376072273206397e-02  -1.4355996945788785e-01 -2.8488425512405909e-04 -1.6296248031372296e-02  -1.4363893858573909e-01 -8.2963215349223518e-03 -1.6291056153792397e-02  -1.5864637228373141e-01 -2.8272135709425878e-04 -1.6343101922346802e-02  -1.5870618083795757e-01 -8.3273868112358901e-03 -1.6339946133252011e-02  -8.2662388052403640e-02 7.9207972279115354e-03 -1.6838800548957939e-02  -6.7166949415637250e-02 7.8566087913311995e-03 -1.6810818328516532e-02  -9.8091921504954202e-02 7.8903038269863852e-03 -1.6707182591481327e-02  -1.1338949660463288e-01 7.8247604619196970e-03 -1.6529818717877957e-02  -1.2855548094701880e-01 7.7626665595897102e-03 -1.6373250756559179e-02  -1.4363000272217433e-01 7.7282284902849890e-03 -1.6287917902826351e-02  -1.5869928519700985e-01 7.7644318162815576e-03 -1.6335467466772571e-02  -8.3180651845586956e-02 1.6111985252413759e-02 -1.6710079518750372e-02  -6.7789623756807360e-02 1.6023445700457110e-02 -1.6639334422676937e-02  -9.8503793988356778e-02 1.6033736661494560e-02 -1.6617474476851902e-02  -1.1371111272524762e-01 1.5899377851588688e-02 -1.6472232042486018e-02  -1.2880865069386760e-01 1.5776688241335234e-02 -1.6339704664315988e-02  -1.4383327945695337e-01 1.5711382697005630e-02 -1.6269314389075196e-02  -1.5885247549891554e-01 1.5772132500813010e-02 -1.6320002501681422e-02  -8.3983354270406596e-02 2.4211608137720244e-02 -1.6538537361380768e-02  -6.8789827249251756e-02 2.4143217578108046e-02 -1.6405974233210517e-02  -9.9123310182915869e-02 2.4079174054971925e-02 -1.6500544160220322e-02  -1.1418328216145035e-01 2.3888692636042125e-02 -1.6399288836433667e-02  -1.2917311216772026e-01 2.3722861783856387e-02 -1.6299190641090474e-02  -1.4412176756416667e-01 2.3637257030088316e-02 -1.6248769087441318e-02  -1.5906862729580734e-01 2.3705758435111877e-02 -1.6304238273148312e-02  -8.4940413136378679e-02 3.2136711127414792e-02 -1.6390066676567054e-02  -7.0050898991368543e-02 3.2113014691393119e-02 -1.6196187452684477e-02  -9.9829949552169644e-02 3.1966628634507284e-02 -1.6403450086163767e-02  -1.1470278336968721e-01 3.1751603205587557e-02 -1.6342161071477901e-02  -1.2956217622875274e-01 3.1574288929676009e-02 -1.6270826115637148e-02  -1.4442174772221517e-01 3.1488256095740588e-02 -1.6237704334370665e-02  -1.5929114010703552e-01 3.1546428097637448e-02 -1.6297893374443925e-02  -8.5825256984413623e-02 3.9786294594442349e-02 -1.6365506373848589e-02  -7.1323540299345983e-02 3.9759413176969863e-02 -1.6149822178987621e-02  -1.0043847373139828e-01 3.9641916638719861e-02 -1.6394211904322963e-02  -1.1512530969200785e-01 3.9460711029458723e-02 -1.6343125323722004e-02  -1.2986395625537830e-01 3.9318135992785400e-02 -1.6278162994373777e-02  -1.4464424010388000e-01 3.9260157853481699e-02 -1.6247533437456389e-02  -1.5945601782235810e-01 3.9300822155031265e-02 -1.6307895192108686e-02  -8.6283400977844885e-02 4.7107130478415464e-02 -1.6589462092836064e-02  -7.2118416732665877e-02 4.6923379883107692e-02 -1.6446523745295791e-02  -1.0070184682925835e-0