<?xml version="1.0"?>
<VTKFile type="UnstructuredGrid"  version="0.1"  >
<UnstructuredGrid>
<Piece  NumberOfPoints="656" NumberOfCells="2688">
<Points>
<DataArray  type="Float64"  NumberOfComponents="3"  format="ascii">0.5589145435436044 0.4225128300671143 0.03410045633256573  0.6542847091293182 0.4225476587303303 0.03402939819607595  0.6541349449675494 0.5001021143238732 0.03409280443108534  0.6539077619268265 0.5001041707318893 0.1121374218564135  0.6540455018123671 0.4224803741037532 0.1120750093362368  0.558465488088813 0.4224158512802433 0.1122482689913271  0.5587340027855522 0.5001004976226582 0.03419512258448777  0.5582981661535921 0.5001036444226943 0.1123416546905766  0.7498381778873241 0.4225285973692577 0.03389969295434159  0.7497175491834125 0.5001065947024264 0.03393802067878897  0.7496007146007336 0.5001078120682793 0.1118964972245892  0.7497112937032439 0.4224863181056888 0.1118587118140614  0.8454881655704878 0.4224927274722419 0.03377180983407622  0.8453904992409804 0.5001129725344727 0.03379059767134276  0.845324470874026 0.5001133952192517 0.1116837804443436  0.8454139602234313 0.4224703717000959 0.1116649320667872  0.9411856128864268 0.4224616318181845 0.0336759228849988  0.9411026250640837 0.5001196704752567 0.033678710847566  0.9410555126391636 0.5001200378087706 0.1115296005304218  0.941131156360966 0.422455803547688 0.1115254308078202  1.036902768134345 0.4224588330194498 0.03362358278156711  1.03682897289201 0.5001317811937653 0.0336132331444749  1.036789916803599 0.5001294884481494 0.1114503954596457  1.036856957024227 0.4224638284606224 0.1114572351837004  1.132632151852376 0.4225073635515001 0.03362173527923048  1.132563503164657 0.5001347686337069 0.03360033408833102  1.132540778261251 0.5001381135486677 0.1114602940183404  1.13260080883206 0.4225191504894729 0.1114750958018121  0.6542817390962148 0.5776585507118571 0.03402321134724861  0.6540412977599701 0.5777292026396962 0.1120681473453484  0.5589105866449164 0.5776897249771227 0.03409353985339911  0.5584600620747503 0.5777921051674653 0.1122403417190662  0.7498336633179263 0.577686538211413 0.03389467245031322  0.7497058632911953 0.5777306952726684 0.1118533766734568  0.8454815524837458 0.5777347156344586 0.03376786532031801  0.845406457179412 0.5777575833533717 0.1116609186489007  0.9411755332566607 0.5777786912529435 0.03367233115049786  0.9411212541869495 0.5777849684786606 0.1115224057138947  1.036893333993843 0.57780375245653 0.03362219707559125  1.036846810453224 0.5777946128582434 0.1114557200275684  1.132620127675012 0.5777616870298009 0.03362042318940462  1.13259025707072 0.5777556688547286 0.1114738569224648  0.6547042783068424 0.6552750999473782 0.03383549408199626  0.6544278566105487 0.6553932653354038 0.1118831754998938  0.5594287246415754 0.6553374771887244 0.03381382989963379  0.5589375537720112 0.6555106425819279 0.1119641816722248  0.7501655601533891 0.6553167010474964 0.03378011474884197  0.7500082360945378 0.6553898446353301 0.1117405665377637  0.8457419519456558 0.6553926089608488 0.03370971771973613  0.845642783467165 0.655430222187906 0.1116029924499253  0.9413867985831145 0.6554606367668983 0.03365885017497697  0.9413128343198158 0.6554703053078771 0.1115064467814953  1.0370794009284 0.6554898373540121 0.0336484355600848  1.037013235069373 0.6554762467987367 0.1114723653556501  1.13278753256966 0.6554120276640435 0.03367717032761907  1.132736456263585 0.6553986833278818 0.1115128435247996  0.6553375522189246 0.7330083621525429 0.03357401236202543  0.6550101429134526 0.7331355638425263 0.1116299105226512  0.5602313377122858 0.7331090125665176 0.0334142151767255  0.5596806376856691 0.7332985300124226 0.1115758545771014  0.7506512127941364 0.7330401028166817 0.03362429303280205  0.7504529291581979 0.73311779715067 0.1115899968870682  0.8461163670968341 0.7331156722940086 0.03363283931585763  0.8459844570944469 0.7331553361411112 0.1115281613803739  0.9416875292174901 0.7331830093870854 0.03364316748369787  0.9415866506254158 0.7331928567746283 0.1114882279440476  1.037342430557992 0.7332011699724065 0.03368550466350801  1.037249176237951 0.7331877913190442 0.11149717524425  1.133025837563806 0.7331028571296875 0.0337560987594137  1.132944378252403 0.733087115445862 0.1115680831095915  0.6560694205267519 0.8109016982639855 0.03331043880012086  0.6556873280683344 0.8109936156207094 0.1113859978578574  0.5612052063549928 0.8110680613103685 0.03299589717404135  0.5605886277894087 0.8112065676708092 0.1111857724331762  0.7511930153752636 0.8108842357588629 0.03347253832195268  0.7509518397529664 0.8109397813531366 0.111450693902539  0.8465234228458904 0.8109211611304459 0.03356135719430864  0.8463577262536253 0.8109493086083057 0.1114627033354595  0.9420086861191955 0.8109570467515871 0.03363175643684521  0.9418800066948715 0.8109627490581284 0.1114757894088197  1.037617390977296 0.8109441094905573 0.0337226468060023  1.037498165919899 0.8109345341962236 0.1115236125726867  1.133276645138364 0.8108389664722047 0.03383288921353122  1.133165203092458 0.8108262488535994 0.11162423241883  0.6567445594902919 0.8889723750329347 0.03313531767828144  0.6563153088241491 0.8889905058874582 0.1112475940032165  0.5621658395997063 0.8892618819361566 0.03270132557764988  0.5614889900967148 0.8892847280677182 0.1109477565083927  0.7516679925594389 0.8888524726050253 0.03337835853272812  0.7513905712308625 0.8888647859190235 0.1113785093116658  0.8468669192089636 0.8888072657477796 0.03352247670315187  0.8466738261339541 0.888814592660223 0.1114343661509035  0.9422736573856466 0.8887782925329253 0.03363101376940586  0.9421226536256817 0.8887792281221748 0.1114766376426508  1.037839859729076 0.8887141947217645 0.0337468498889504  1.03770116979067 0.8887123714340772 0.1115440015189151  1.13348428516849 0.88860659791074 0.03387849250459472  1.133351557698944 0.8886027081781661 0.1116617139481842  0.6571793415696344 0.967144949118565 0.03309298579224432  0.6567368476393431 0.9671079948516913 0.1112814876088585  0.5628574580269879 0.9676045805812791 0.03262831553515263  0.5621622343496284 0.9675382904377359 0.1109926557638496  0.7519451216664403 0.9668866983979432 0.03335659827533419  0.751658866904938 0.9668687601213334 0.1114021945465476  0.8470559450184839 0.9667346274708989 0.03351449079102622  0.8468569823356424 0.9667289823634175 0.1114497067700813  0.9424239246126618 0.9666248515701814 0.03363181431382341  0.942266622771935 0.9666259281920246 0.1114843578113332  1.037974433196513 0.9665088919545046 0.03375016939285822  1.037829722215044 0.9665134365937937 0.1115461091411988  1.133614749198126 0.9663879847027896 0.03388232231694999  1.133479455197457 0.9663850195023875 0.1116612918306517  0.6532623082616019 0.5001100163794749 0.1899747836957736  0.6534024542543442 0.4224997337265089 0.1899216160852209  0.5575172603698357 0.4224486885824573 0.190084670251606  0.5573451578626842 0.5001123569183287 0.190164037926215  0.7491663247423824 0.5001113372104364 0.1897294539893151  0.7492777570101729 0.4224966142853289 0.1896970931726  0.8450244089173259 0.5001151668099093 0.1895069293917235  0.8451135877454199 0.4224748745975795 0.1894904576006961  0.9408383574290717 0.500120174339128 0.1893440145733733  0.9409128861477039 0.4224561713207823 0.1893394369927888  1.036625908857463 0.5001287720517915 0.1892621365042201  1.036690617855897 0.4224601856967672 0.1892657726844777  1.132423557611158 0.5001354237121829 0.1893018840907139  1.132479274545058 0.4225082850567231 0.1893100037745077  0.6533947843364457 0.5777201241843748 0.1899125532071868  0.5575074659943938 0.5777751411133795 0.1900733014615974  0.7492695721100416 0.5777263863785035 0.1896905685615015  0.8451041943637655 0.5777559247785838 0.1894860194891155  0.9409015778486945 0.5777845748008373 0.1893366207556093  1.036679796689301 0.5777967662395419 0.1892648320474996  1.132468224053535 0.5777615418197921 0.1893102752239554  0.6537824081241971 0.6553599364048438 0.1897503211460535  0.5579912601940324 0.6554537193792905 0.189832069971963  0.7495696434853187 0.6553720799510616 0.1895911921806568  0.8453363862767511 0.6554221807250945 0.1894341787407093  0.941087573957649 0.6554683528170954 0.1893200909429242  1.03683849557685 0.6554810300349391 0.1892738851342295  1.132601454705265 0.6554127724141717 0.1893338413620214  0.6543685171848141 0.733065173328743 0.189532924304653  0.5587479369521425 0.7331807239553507 0.1895002534960066  0.7500121725623223 0.7330792622898527 0.1894613735877401  0.8456725384367818 0.7331373937315584 0.1893687281785409  0.9413533844745714 0.7331883965578754 0.1893015623393905  1.037063004053157 0.7331950565054922 0.1892888175301635  1.132790617885587 0.7331083558560239 0.1893685222507408  0.65504942821949 0.8108768093828633 0.1893325606835718  0.5596734812010262 0.8110111509708873 0.1891814628041928  0.7505073322947243 0.8108755190810222 0.1893465923173155  0.846038059786492 0.8109195140503661 0.1893142166722377  0.9416364524852313 0.8109556832836299 0.1892895373318962  1.037298119912751 0.8109445437564474 0.1893066742083116  1.132989911653422 0.810853526674662 0.1894066512794853  0.6556716462360505 0.888830279224231 0.1892405437907832  0.5605789608433526 0.889016571651485 0.1890206351961047  0.7509348472867026 0.888776931721672 0.1893003476462409  0.8463413648197643 0.8887747423977689 0.1892974881270215  0.9418650229595863 0.8887712001989593 0.1892922746026214  1.037484059825311 0.8887265718032339 0.1893234005322984  1.133154301721686 0.8886349605906946 0.1894374408664845  0.6560413724163456 0.9669065594398318 0.1893487290861849  0.5611932159833968 0.9672080976759838 0.1891792579094464  0.7511642211124134 0.966756367270078 0.1893673222678727  0.8464945220108535 0.9666768354137387 0.1893338314046286  0.9419849049911321 0.9666152947504846 0.1893048065145833  1.037592530604701 0.9665317736394065 0.1893188160327854  1.133262180044558 0.9664234881273255 0.1894268508930433  0.6525092894210863 0.5001078639072145 0.2676400368435488  0.6526547415652847 0.4225483047
[...]
<PointData  Vectors="f_35"> 
<DataArray  type="Float64"  Name="f_35"  NumberOfComponents="3" format="ascii">-6.7723880566492339e-02 -6.8114980340527763e-03 -3.9796496485653372e-02  -8.1507139082501873e-02 -6.8616970226602165e-03 -3.9710639365165640e-02  -8.1325685810114900e-02 -1.1883845089833381e-04 -3.9790718007878520e-02  -8.1052919387485059e-02 -1.2153960057917406e-04 -3.3642089435712653e-02  -8.1218441206268754e-02 -6.7767881974933461e-03 -3.3563314552511526e-02  -6.7183593338614914e-02 -6.6909898200652211e-03 -3.3767395294686926e-02  -6.7507406463399797e-02 -1.1851266901812897e-04 -3.9914703861311275e-02  -6.6984390058776017e-02 -1.2240700329814929e-04 -3.3884127777458556e-02  -9.5510162804756604e-02 -6.8451118283002245e-03 -3.9555303541546044e-02  -9.5362960228468505e-02 -1.2283806158222400e-04 -3.9604541728612351e-02  -9.5224139753743997e-02 -1.2459894299386701e-04 -3.3354491702041515e-02  -9.5357925955604050e-02 -6.7906670540720674e-03 -3.3306028692348971e-02  -1.0963017679464310e-01 -6.8060980214377778e-03 -3.9401380925444686e-02  -1.0951087603556299e-01 -1.2938231130783407e-04 -3.9426526247626936e-02  -1.0943483187595568e-01 -1.3022972351690434e-04 -3.3099573131358161e-02  -1.0954314958881281e-01 -6.7761696254687595e-03 -3.3074505251450420e-02  -1.2380854855318989e-01 -6.7712467777268238e-03 -3.9283768676739099e-02  -1.2370816631794448e-01 -1.3679992630162745e-04 -3.9289306935109423e-02  -1.2365680572911342e-01 -1.3741644091914642e-04 -3.2912518364497940e-02  -1.2374746473931643e-01 -6.7615106489866354e-03 -3.2905505764220466e-02  -1.3801174615982253e-01 -6.7684652300931854e-03 -3.9215197411231910e-02  -1.3792432742515032e-01 -1.5030808787328743e-04 -3.9204776169809143e-02  -1.3788344502741728e-01 -1.4776013890062105e-04 -3.2812278509625377e-02  -1.3796231342020140e-01 -6.7716786273974141e-03 -3.2818712529551923e-02  -1.5222918509467726e-01 -6.8235827403038936e-03 -3.9204835632047269e-02  -1.5215027271798079e-01 -1.5361226945395995e-04 -3.9181714070060901e-02  -1.5212910636915650e-01 -1.5733147087933336e-04 -3.2814498847992542e-02  -1.5219788217429819e-01 -6.8343353831945486e-03 -3.2830484041407891e-02  -8.1503156504895036e-02 6.6219320920015007e-03 -3.9702864283446805e-02  -8.1213345234441472e-02 6.5324925015516309e-03 -3.3554672635688475e-02  -6.7717827778655523e-02 6.5729299634886716e-03 -3.9788402944836640e-02  -6.7176254000780547e-02 6.4456445918735887e-03 -3.3758093595430361e-02  -9.5504974325016714e-02 6.5972711224633329e-03 -3.9548633795635127e-02  -9.5351876318075179e-02 6.5399757097796473e-03 -3.3298958193186332e-02  -1.0962291691613450e-01 6.5456171626492978e-03 -3.9395900757819124e-02  -1.0953504013406194e-01 6.5144113810689632e-03 -3.3068843913061162e-02  -1.2379764233796943e-01 6.4965150844835205e-03 -3.9278697980833915e-02  -1.2373689080988753e-01 6.4858840581529008e-03 -3.2900895541403713e-02  -1.3800195447703051e-01 6.4687775767213081e-03 -3.9212486304728192e-02  -1.3795128021557443e-01 6.4766455814129886e-03 -3.2815697496564815e-02  -1.5221720386243645e-01 6.5168142562443037e-03 -3.9203131478168840e-02  -1.5218641926114773e-01 6.5211290248836191e-03 -3.2828044673615844e-02  -8.2015480909293753e-02 1.3290850331617669e-02 -3.9465526283083134e-02  -8.1678854078898161e-02 1.3141052288248713e-02 -3.3320931015929887e-02  -6.8338234071566265e-02 1.3196940682692211e-02 -3.9439526543077891e-02  -6.7744482021628694e-02 1.2981186956125287e-02 -3.3413542327537772e-02  -9.5911412810155916e-02 1.3255495396515609e-02 -3.9400830902463616e-02  -9.5719450180617824e-02 1.3160517705004267e-02 -3.3153653740700097e-02  -1.0994317334610092e-01 1.3174145488844448e-02 -3.9317573085447928e-02  -1.0982347919567025e-01 1.3122922553692143e-02 -3.2991087759473181e-02  -1.2405619043263255e-01 1.3098203752072893e-02 -3.9255222653104660e-02  -1.2396939156177700e-01 1.3081622734928980e-02 -3.2874608284690653e-02  -1.3822560025728117e-01 1.3065981908046176e-02 -3.9236929324259588e-02  -1.3814921852276865e-01 1.3077501852788546e-02 -3.2828963853732657e-02  -1.5241368310633827e-01 1.3155330667780350e-02 -3.9264534887599428e-02  -1.5235556416150758e-01 1.3166279367213171e-02 -3.2868691809289016e-02  -8.2786673366770702e-02 1.9818928188559643e-02 -3.9134091124661693e-02  -8.2383134667571523e-02 1.9657209078576113e-02 -3.3000184668152716e-02  -6.9304060861421074e-02 1.9675468553727721e-02 -3.8939826290428775e-02  -6.8633319455914457e-02 1.9438771517744438e-02 -3.2927801375376410e-02  -9.6508237593613891e-02 1.9797990062451629e-02 -3.9199349729746986e-02  -9.6261982712554164e-02 1.9696772455710491e-02 -3.2959350664029587e-02  -1.1040521087037941e-01 1.9718720975118349e-02 -3.9213688785334676e-02  -1.1024186084362478e-01 1.9664555051370207e-02 -3.2890387857852331e-02  -1.2442555086003569e-01 1.9644382177755892e-02 -3.9226893403145405e-02  -1.2430281306793010e-01 1.9627291758468501e-02 -3.2843746931152301e-02  -1.3854318338328578e-01 1.9624756441473126e-02 -3.9272941566282381e-02  -1.3843122700825497e-01 1.9636133527487044e-02 -3.2850855672811076e-02  -1.5269458348846579e-01 1.9738512053490153e-02 -3.9351633710480262e-02  -1.5259742853830754e-01 1.9752122529590476e-02 -3.2928291292060534e-02  -8.3683344030917040e-02 2.6151526182717096e-02 -3.8798868149019443e-02  -8.3207572986434469e-02 2.6033903632012755e-02 -3.2690317047432603e-02  -7.0484909994495137e-02 2.5930551826030965e-02 -3.8414430995359974e-02  -6.9727885611291285e-02 2.5756731994223278e-02 -3.2437977256595842e-02  -9.7177873982482718e-02 2.6189545381846559e-02 -3.9002259563740552e-02  -9.6874409043960316e-02 2.6116592521214128e-02 -3.2778910226869164e-02  -1.1091036717503319e-01 2.6156832527048850e-02 -3.9116357983901145e-02  -1.1070157924239531e-01 2.6118000212308989e-02 -3.2801699820042447e-02  -1.2482258436758753e-01 2.6120152254328878e-02 -3.9204313769422364e-02  -1.2466216289840627e-01 2.6109315105306671e-02 -3.2821001657900119e-02  -1.3887893513996791e-01 2.6136609756015918e-02 -3.9311029422520641e-02  -1.3873117348504188e-01 2.6144737424157755e-02 -3.2876599427624241e-02  -1.5299441014697981e-01 2.6259344483920977e-02 -3.9439936165735177e-02  -1.5285675970954560e-01 2.6270381358826742e-02 -3.2991727430605466e-02  -8.4519045054129396e-02 3.2264234004332426e-02 -3.8574465486170821e-02  -8.3980741438023448e-02 3.2240333463496675e-02 -3.2513256947269947e-02  -7.1661129598509080e-02 3.1898810058504055e-02 -3.8042672585706455e-02  -7.0824819295377719e-02 3.1869665996132564e-02 -3.2137543903448092e-02  -9.7770788719158744e-02 3.2423947690268289e-02 -3.8878562486605511e-02  -9.7418820290723573e-02 3.2407130531214509e-02 -3.2684459263250878e-02  -1.1134093569909059e-01 3.2490135956532946e-02 -3.9061755045352323e-02  -1.1109503408501321e-01 3.2479455414420960e-02 -3.2762063328364205e-02  -1.2515293007800446e-01 3.2531746636009357e-02 -3.9197852007567001e-02  -1.2496236047341783e-01 3.2528779551331620e-02 -3.2818163983854329e-02  -1.3915215137072973e-01 3.2610026925829573e-02 -3.9337088564228267e-02  -1.3897881847399621e-01 3.2609688382854725e-02 -3.2899084869365998e-02  -1.5324499462398961e-01 3.2735355256278950e-02 -3.9494166500262287e-02  -1.5307920250809404e-01 3.2737276706013112e-02 -3.3037021590716864e-02  -8.5070193352410409e-02 3.8248769241413329e-02 -3.8519019350945129e-02  -8.4511341506822435e-02 3.8295411852811566e-02 -3.2554883325813251e-02  -7.2525819022207880e-02 3.7683543405707023e-02 -3.7948443709136727e-02  -7.1662925866999530e-02 3.7765142354245967e-02 -3.2190731166214744e-02  -9.8126788719858152e-02 3.8573551842834314e-02 -3.8849025135900030e-02  -9.7760982108787614e-02 3.8596430983409029e-02 -3.2713790483585810e-02  -1.1158485409295628e-01 3.8768369213458935e-02 -3.9049510664473680e-02  -1.1132915970796685e-01 3.8775984611438385e-02 -3.2781363208588689e-02  -1.2534317922326199e-01 3.8908218946648053e-02 -3.9196599210091602e-02  -1.2514362492017386e-01 3.8906935792551084e-02 -3.2828065057623715e-02  -1.3931876301094781e-01 3.9049601665045008e-02 -3.9339342632933205e-02  -1.3913732339291712e-01 3.9042945796414937e-02 -3.2902100922099921e-02  -1.5339934382295856e-01 3.9191842121284223e-02 -3.9496585341342413e-02  -1.5323172143254449e-01 3.9192324234739270e-02 -3.3037723918653270e-02  -8.0279535275450384e-02 -1.2896066526060673e-04 -2.7233870391492838e-02  -8.0446917152179359e-02 -6.8010554809350620e-03 -2.7166743863199814e-02  -6.6050553713240617e-02 -6.7322334036651055e-03 -2.7353494367892535e-02  -6.5846647354662474e-02 -1.3331686214293205e-04 -2.7452783299409630e-02  -9.4703090090856645e-02 -1.2917685394708324e-04 -2.6944917604204251e-02  -9.4836932151201134e-02 -6.8035565674251621e-03 -2.6903441162060841e-02  -1.0907661931041056e-01 -1.3259215410824177e-04 -2.6680933931631384e-02  -1.0918366097606516e-01 -6.7817934420525460e-03 -2.6659119202111860e-02  -1.2340145628447230e-01 -1.3768824978054473e-04 -2.6485656698834192e-02  -1.2348996274972780e-01 -6.7619540308214076e-03 -2.6478511820688975e-02  -1.3769620212628697e-01 -1.4679271256576404e-04 -2.6384523786683940e-02  -1.3777158166041520e-01 -6.7669530131841821e-03 -2.6387482902021139e-02  -1.5200034835723797e-01 -1.5404956867616108e-04 -2.6420351343207714e-02  -1.5206362508533955e-01 -6.8203326281760877e-03 -2.6428965790332364e-02  -8.0437869045527133e-02 6.5436481479418792e-03 -2.7155329067375888e-02  -6.6038236110980364e-02 6.4669338314645780e-03 -2.7339813030957050e-02  -9.4827729851025236e-02 6.5450366564878161e-03 -2.6894843661837788e-02  -1.0917339334316460e-01 6.5161914361688998e-03 -2.6652846871662306e-02  -1.2347770854501819e-01 6.4861838428282859e-03 -2.6474061958046049e-02  -1.3775962616437912e-01 6.4739349408699512e-03 -2.6385125321327484e-02  -1.5205122617715724e-01 6.5132716040412321e-03 -2.6428114070854051e-02  -8.0902118406795023e-02 1.3182594799675913e-02 -2.6950310958207283e-02  -6.6611515328779305e-02 1.3052405634699249e-02 -2.7038658111143355e-02  -9.5190090008936412e-02 1.3182496413612615e-02 -2.6766898201341885e-02  -1.0945453159496231e-01 1.3132835018635394e-02 -2.6583376300336449e-02  -1.2370121671929989e-01 1.3084074720883876e-02 -2.6447928448354405e-02  -1.3794608398405805e-01 1.3071662722678467e-02 -2.6390194209214856e-02  -1.5220319582059413e-01 1.3148056756052412e-02 -2.6451532430507099e-02  -8.1607077399120195e-02 1.9745437657129092e-02 -2.6675075772329800e-02  -6.7512725640523186e-02 1.9586159227079309e-02 -2.6623426349769087e-02  -9.5726344985408190e-02 1.9745275016162585e-02 -2.6599511400986511e-02  -1.0986281304117756e-01 1.9687491403096880e-02 -2.6495504223355646e-02  -1.2402167920225378e-01 1.9633571540870247e-02 -2.6417936927254197e-02  -1.3821116356912838e-01 1.9627760887906728e-02 -2.6401331936441418e-02  -1.5242005039849729e-01 1.9725234766217469e-02 -2.6487859155566017e-02  -8.2431342503673885e-02 2.6181025520958322e-02 -2.6420746643928301e-02  -6.8623370586102114e-02 2.6001418116186586e-02 -2.6223261907481261e-02  -9.6329943146382838e-02 2.6198383529297931e-02 -2.6451134302310591e-02  -1.1030922806170103e-01 2.6156900224959881e-02 -2.6421951095910171e-02  -1.2436484393606535e-01 2.6119874273901760e-02 -2.6397116184570430e-02  -1.3849068159047967e-01 2.6133663254530856e-02 -2.6417682908161075e-02  -1.5265047438280105e-01 2.6236532433171540e-02 -2.6530518677963726e-02  -8.3192706860699184e-02 3.2442826241568183e-02 -2.6303169941720120e-02  -6.9721136246435958e-02 3.2205507846489678e-02 -2.6019963198877678e-02  -9.6856382008690692e-02 3.2519793348953628e-02 -2.6390797425920518e-02  -1.1068333649946004e-01 3.2532369097701276e-02 -2.6398515400461613e-02  -1.2464460791551837e-01 3.2541756845343169e-02 -2.6398120765228968e-02  -1.3871481230487881e-01 3.2594129892056352e-02 -2.6436576888881434e-02  -1.5284371715862519e-01 3.2697930967084690e-02 -2.6568016157473739e-02  -8.3655557740949002e-02 3.8550349293093103e-02 -2.6439447470835674e-02  -7.0483199645463138e-02 3.8177720145688508e-02 -2.6216609410891198e-02  -9.7147442909848655e-02 3.8741092120463866e-02 -2.6476640372952526e-02  -1.1087755358513875e-01 3.8845856426069088e-02 -2.6446598705611349e-02  -1.2479370982360634e-01 3.8924567669469973e-02 -2.6416654182181608e-02  -1.3884609214197313e-01 3.9023582198767767e-02 -2.6433915504429886e-02  -1.5297061801800294e-01 3.9146461829874898e-02 -2.6559294161922778e-02  -7.9380822167411352e-02 -1.2640777961750300e-04 -2.0613944659412492e-02  -7.9553840414337704e-02 -6.8624816139786987e-03 -2.0561728166553665e-02  -6.4836737451110113e-02 -6.8258245780300035e-03 -2.0681140888767977e-02  -6.4623980151374896e-02 -1.3044160492652873e-04 -2.0757904981374999e-02  -9.4057422116663042e-02 -1.2696748519960168e-04 -2.0380614015417391e-02  -9.4194452088941533e-02 -6.8402183172932085e-03 -2.0348100175577161e-02  -1.0861060285193566e-01 -1.3063057036693328e-04 -2.0154787783190985e-02  -1.0871889415166411e-01 -6.8002723599326857e-03 -2.0137389937184058e-02  -1.2305665433195007e-01 -1.3583282453002242e-04 -1.9982909919169550e-02  -1.2314497063961738e-01 -6.7670714093343211e-03 -1.9976618047476614e-02  -1.3743119642819529e-01 -1.4511877543694446e-04 -1.9897253571442241e-02  -1.3750498296842803e-01 -6.7619224369013901e-03 -1.9898311688293212e-02  -1.5180580786051756e-01 -1.5258020399635657e-04 -1.9950246798198547e-02  -1.5186566871198878e-01 -6.8079375233685907e-03 -1.9955319228401869e-02  -7.9545907160142468e-02 6.6107121411502108e-03 -2.0551296288709192e-02  -6.4825265703161300e-02 6.5671761059838372e-03 -2.0668271128699425e-02  -9.4186083216219157e-02 6.5863625423248640e-03 -2.0340415175555800e-02  -1.0870930462059633e-01 6.5386415392995768e-03 -2.0131933065181865e-02  -1.2313321790951509e-01 6.4949588375073164e-03 -1.9972908150113239e-02  -1.3749353169412803e-01 6.4721771063626877e-03 -1.9896436337901609e-02  -1.5185393044898540e-01 6.5037852080879850e-03 -1.9954064506868114e-02  -8.0028655066669133e-02 1.3316815755548999e-02 -2.0390106181211891e-02  -6.5426379950005956e-02 1.3255851849007421e-02 -2.0433174093769303e-02  -9.4558907850751009e-02 1.3263909942570779e-02 -2.0239086780312058e-02  -1.0899493034481762e-01 1.3176005545523206e-02 -2.0076114194554337e-02  -1.2335675827972485e-01 1.3099770027069661e-02 -1.9950432704223264e-02  -1.3767602548086574e-01 1.3066722296333344e-02 -1.9897196776031207e-02  -1.5199707572741639e-01 1.3128326626034815e-02 -1.9967164709936425e-02  -8.0759802013460183e-02 1.9948021363431510e-02 -2.0177093799532506e-02  -6.6370071365649139e-02 1.9897828143332897e-02 -2.0114725267847213e-02  -9.5108726346877101e-02 1.9866600320375453e-02 -2.0108450669250148e-02  -1.0940783632499730e-01 1.9750673508547527e-02 -2.0006531428955733e-02  -1.2367540162649013e-01 1.9655428944259014e-02 -1.9924956935608043e-02  -1.3793337137039016e-01 1.9619407883786275e-02 -1.9902381116484187e-02  -1.5219911242888257e-01 1.9695832716619344e-02 -1.9990013651230779e-02  -8.1607088979223308e-02 2.6447412166399436e-02 -1.9987512126081516e-02  -6.7524136128132087e-02 2.6416143453371954e-02 -1.9819589528152735e-02  -9.5720981076919981e-02 2.6356155563094934e-02 -1.9997102957424150e-02  -1.0985368431270061e-01 2.6237632704073532e-02 -1.9950764014638390e-02  -1.2401170172301262e-01 2.6146276048698857e-02 -1.9908423360718724e-02  -1.3819981347885676e-01 2.6120706124363843e-02 -1.9913597100424583e-02  -1.5240843011027760e-01 2.6196491604338904e-02 -2.0021183631791249e-02  -8.2363486597379340e-02 3.2761091737750526e-02 -1.9924522044724936e-02  -6.8632452276678371e-02 3.2703826891207100e-02 -1.9705399053887851e-02  -9.6234974969786918e-02 3.2707295301127724e-02 -1.9967232384460059e-02  -1.1021220836214496e-01 3.2626877590032834e-02 -1.9941469406780266e-02  -1.2427372344172995e-01 3.2569810806544162e-02 -1.9912665995660980e-02  -1.3840219598006895e-01 3.2571876874654598e-02 -1.9928877397074798e-02  -1.5257161922604906e-01 3.2640623406582359e-02 -2.0052796203448606e-02  -8.2751589413517873e-02 3.8891277562124967e-02 -2.0102138507930963e-02  -6.9305594097547718e-02 3.8706180061759840e-02 -1.9961751269641916e-02  -9.6468090975084783e-02 3.8943477115136502e-02 -2.0079522688769190e-02  -1.1036059602056733e-01 3.8948332143507042e-02 -2.0003740855675651e-02  -1.2438531694558468e-01 3.8953074187957897e-02 -1.9935620657776910e-02  -1.3849927439515086e-01 3.8991828608288336e-02 -1.9922616555958426e-02  -1.5265927896889106e-01 3.9064341097987544e-02 -2.0038714771106254e-02  -7.8590575608363300e-02 -1.2316792036767320e-04 -1.3846705112668077e-02  -7.8770303268454162e-02 -6.9326291841115446e-03 -1.3812318251820981e-02  -6.3821236940001219e-02 -6.9292066598193817e-03 -1.3868922476728262e-02  -6.3599204020290345e-02 -1.2650702274646374e-04 -1.3919268739966965e-02  -9.3465681773442708e-02 -1.2432513143617369e-04 -1.3692537713439921e-02  -9.3607116125850640e-02 -6.8835913892346312e-03 -1.3671047344746766e-02  -1.0816950838615663e-01 -1.2852851261824073e-04 -1.3533360334412452e-02  -1.0828020239607038e-01 -6.8234206064561268e-03 -1.3521822354582647e-02  -1.2272023747816652e-01 -1.3411126348363838e-04 -1.3409139679880007e-02  -1.2280951025132943e-01 -6.7753657637473381e-03 -1.3404868172394609e-02  -1.3716548791630767e-01 -1.4386776760694765e-04 -1.3350761607909375e-02  -1.3723900123859792e-01 -6.7598980802781100e-03 -1.3351266743562374e-02  -1.5160569988412520e-01 -1.5144305618646652e-04 -1.3403537092042842e-02  -1.5166404447233273e-01 -6.8001025205625815e-03 -1.3406491738230275e-02  -7.8763519095279913e-02 6.6876719492772367e-03 -1.3802905885304468e-02  -6.3810950037865910e-02 6.6789061012753979e-03 -1.3856973933885967e-02  -9.3599653497099908e-02 6.6351526451035410e-03 -1.3664242784357241e-02  -1.0827139601161627e-01 6.5660296060225274e-03 -1.3517094360212525e-02  -1.2279833135843986e-01 6.5066992009815000e-03 -1.3401774502718251e-02  -1.3722809437422270e-01 6.4726819991250259e-03 -1.3349599910145969e-02  -1.5165266849626585e-01 6.4982730794115699e-03 -1.3405274531031998e-02  -7.9267406313864461e-02 1.3466811929526109e-02 -1.3692798187887965e-02  -6.4440960108567313e-02 1.3476117945044646e-02 -1.3697487622616328e-02  -9.3986198221333306e-02 1.3357781672692880e-02 -1.3594587596008938e-02  -1.0856478350474254e-01 1.3227725718296952e-02 -1.3478370039838641e-02  -1.2302514150308907e-01 1.3120836535344410e-02 -1.3385682966553465e-02  -1.3741029226020332e-01 1.3066127616713637e-02 -1.3349037030226354e-02  -1.5179166024656410e-01 1.3115812942348110e-02 -1.3412456697140307e-02  -8.0027630667828392e-02 2.0167504979695116e-02 -1.3549723259219640e-02  -6.5426692711874915e-02 2.0224015437530416e-02 -1.3485383787670278e-02  -9.4553733251613911e-02 2.0002444430023202e-02 -1.3506257864172814e-02  -1.0898671864449604e-01 1.9824310996362893e-02 -1.3430944222512071e-02  -1.2334643126634137e-01 1.9684031889876479e-02 -1.3367876404731346e-02  -1.3766500973282264e-01 1.9616371861168210e-02 -1.3351791805076870e-02  -1.5198542204322546e-01 1.9674752442686266e-02 -1.3426679257793020e-02  -8.0900063770691422e-02 2.6727796452685037e-02 -1.3427972802319513e-02  -6.6621497400498317e-02 2.6836919433942650e-02 -1.3297222691691438e-02  -9.5178562107566478e-02 2.6527853930534966e-02 -1.3434538533234118e-02  -1.0943652416236477e-01 2.6329101037143161e-02 -1.3395075699904545e-02  -1.2368054959345272e-01 2.6179443817839224e-02 -1.3357591557918399e-02  -1.3792360425697550e-01 2.6112180271645909e-02 -1.3360001208362199e-02  -1.5218004810240082e-01 2.6162558429523870e-02 -1.3448375911691580e-02  -8.1653100405456050e-02 3.3083445923374040e-02 -1.3404953193242461e-02  -6.7739476118788389e-02 3.3190998669805752e-02 -1.3249208442314088e-02  -9.5683624296588943e-02 3.2903560716896575e-02 -1.3426410221274526e-02  -1.0978303082594913e-01 3.2729558169452735e-02 -1.3395453205625338e-02  -1.2392853868854940e-01 3.2602958290266833e-02 -1.3363403601936190e-02  -1.3810805366016432e-01 3.2551890571399414e-02 -1.3371299609286310e-02  -1.5231744932490873e-01 3.2584954143369371e-02 -1.3471546981684714e-02  -8.1972184100772935e-02 3.9223223998724334e-02 -1.3566773314872438e-02  -6.8327035818052481e-02 3.9208191454233071e-02 -1.3480963453718565e-02  -9.5859966750888065e-0