<?xml version="1.0"?>
<VTKFile type="UnstructuredGrid"  version="0.1"  >
<UnstructuredGrid>
<Piece  NumberOfPoints="629" NumberOfCells="2557">
<Points>
<DataArray  type="Float64"  NumberOfComponents="3"  format="ascii">0.5589145435436044 0.03410045633256575 0.4225128300671142  0.6542847091293182 0.03402939819607599 0.4225476587303303  0.6541349449675493 0.03409280443108528 0.5001021143238732  0.6539077619268263 0.1121374218564135 0.5001041707318894  0.5587340027855522 0.03419512258448774 0.5001004976226581  0.5582981661535922 0.1123416546905768 0.5001036444226943  0.7497175491834127 0.03393802067878898 0.5001065947024262  0.7496007146007337 0.1118964972245893 0.5001078120682791  0.6540412977599702 0.1120681473453485 0.5777292026396962  0.6542817390962148 0.03402321134724866 0.577658550711857  0.5589105866449164 0.03409353985339912 0.5776897249771228  0.5584600620747503 0.1122403417190662 0.5777921051674653  0.749705863291195 0.1118533766734568 0.5777306952726685  0.7498336633179263 0.03389467245031324 0.5776865382114131  0.8453904992409803 0.03379059767134274 0.5001129725344727  0.8453244708740258 0.1116837804443437 0.5001133952192517  0.8454064571794121 0.1116609186489008 0.5777575833533717  0.8454815524837459 0.03376786532031809 0.5777347156344587  0.9411026250640842 0.03367871084756597 0.5001196704752566  0.9410555126391634 0.1115296005304217 0.5001200378087706  0.9411212541869495 0.1115224057138948 0.5777849684786606  0.9411755332566605 0.03367233115049786 0.5777786912529436  1.036828972892011 0.03361323314447504 0.5001317811937651  1.036789916803599 0.1114503954596459 0.5001294884481493  1.036846810453223 0.1114557200275684 0.5777946128582436  1.036893333993843 0.03362219707559129 0.57780375245653  1.132563503164657 0.03360033408833108 0.5001347686337069  1.132540778261251 0.1114602940183406 0.5001381135486678  1.13259025707072 0.1114738569224649 0.5777556688547288  1.132620127675012 0.03362042318940464 0.5777616870298011  0.6532623082616021 0.1899747836957736 0.5001100163794749  0.6533947843364456 0.1899125532071867 0.5777201241843748  0.5573451578626842 0.1901640379262149 0.5001123569183288  0.5575074659943938 0.1900733014615975 0.5777751411133794  0.7491663247423828 0.1897294539893153 0.5001113372104362  0.7492695721100419 0.1896905685615014 0.5777263863785036  0.8450244089173258 0.1895069293917235 0.5001151668099091  0.8451041943637654 0.1894860194891155 0.5777559247785841  0.9408383574290722 0.1893440145733734 0.500120174339128  0.9409015778486943 0.1893366207556094 0.5777845748008376  1.036625908857463 0.1892621365042202 0.5001287720517915  1.036679796689302 0.1892648320474997 0.5777967662395419  1.132423557611158 0.189301884090714 0.500135423712183  1.132468224053535 0.1893102752239554 0.5777615418197922  0.6525092894210862 0.267640036843549 0.5001078639072145  0.6526478727135278 0.2675904067152801 0.5776668245833601  0.5563162163799873 0.2677692840872431 0.5001098739433948  0.5564870956220206 0.267697325246179 0.5776948432245641  0.7486269671281112 0.2674387898701957 0.5001095400556617  0.7487340238357324 0.2674075899993045 0.5776939793321103  0.8446338735270679 0.2672464047557739 0.5001136429900969  0.8447157452268006 0.2672294038620002 0.5777388621825696  0.940545454610469 0.2671012990223379 0.50011881472265  0.94060945188836 0.267094845137581 0.5777786955895213  1.036394020185025 0.2670310588412794 0.5001276488978178  1.03644755566048 0.267032205716754 0.5777995332920954  1.132245129775702 0.2670850887130914 0.5001344826600954  1.132287958785342 0.2670898723387785 0.5777702481733294  0.6518447752093545 0.3451826208004657 0.5001052266324433  0.6519902310633361 0.3451479457592673 0.5776057609088767  0.5554494848135118 0.3452514999544857 0.5001065732971052  0.5556294441036351 0.3452015069040473 0.5776052921094698  0.7481312516606722 0.3450477832910128 0.5001074911598878  0.7482430237865728 0.3450258556832871 0.5776558991670648  0.8442632883422245 0.3449110420283422 0.5001121093004728  0.8443481308275049 0.3448989871247759 0.5777182323199885  0.9402589082866197 0.3448053179753888 0.5001176721539513  0.9403245321073871 0.3448006050928922 0.5777708823587707  1.036161013511997 0.3447572270462312 0.5001269952620561  1.036215191911678 0.3447576830449041 0.5778009799630422  1.132062254408439 0.3448098574542837 0.5001339988488936  1.132104559361718 0.3448126246202416 0.5777763215932682  0.6514007091312416 0.4226557628838529 0.5001015320432235  0.6515513925363392 0.4226373818085671 0.5775587833598115  0.5548875614623864 0.4226822877248297 0.500101717816239  0.5550741991857917 0.4226557895529008 0.5775374974594728  0.7477904089119929 0.4225911815155002 0.5001048318484473  0.7479059444467739 0.4225795740206232 0.5776261842680209  0.8440026723946245 0.4225232257907895 0.5001103264483227  0.8440899955711371 0.4225168863602822 0.5777018443586992  0.9400527692978302 0.4224706004396735 0.5001165896549641  0.9401198920915949 0.4224682080005083 0.5777643598915836  1.035990728435916 0.4224508030870161 0.5001265118161999  1.036045692783866 0.4224511158050231 0.5778013018808605  1.131926997702234 0.4224856570191031 0.5001337534382564  1.131969316461303 0.4224871512567235 0.5777797087081245  0.6512441608993417 0.5000985716162611 0.5000985716162613  0.6513969506219206 0.5000969311895382 0.5775405026824455  0.5546924927378842 0.5000975795565862 0.5000975795565862  0.5548818563854685 0.5000949151388551 0.5775110587978186  0.7476679379779543 0.5001028611741892 0.5001028611741893  0.7477850092535329 0.5001019927015736 0.5776146873945803  0.8439071532904145 0.5001091627329756 0.5001091627329756  0.8439954734465985 0.5001088712118514 0.5776955890900645  0.939975149971408 0.5001160775231132 0.500116077523113  0.9400428821864163 0.5001162510768599 0.5777620126659292  1.035925802786089 0.5001264355443032 0.5001264355443034  1.03598106538687 0.5001268107149207 0.5778015178700734  1.131874513219626 0.5001339080921778 0.5001339080921775  1.131916835353006 0.5001344442653114 0.5777810941662553  0.6513969506219206 0.5775405026824455 0.5000969311895384  0.651548331466929 0.5775556930299069 0.5775556930299068  0.5548818563854687 0.5775110587978187 0.5000949151388551  0.5550695848300033 0.5775323207719012 0.5775323207719012  0.7477850092535328 0.5776146873945803 0.5001019927015736  0.7479010233115273 0.577624634185412 0.577624634185412  0.8439954734465985 0.5776955890900646 0.5001088712118515  0.8440830208078063 0.5777013876303073 0.5777013876303074  0.9400428821864166 0.5777620126659291 0.5001162510768599  0.9401101116313719 0.5777647656241313 0.5777647656241313  1.03598106538687 0.5778015178700735 0.5001268107149206  1.036035946145237 0.5778019860626215 0.5778019860626215  1.131916835353007 0.5777810941662551 0.5001344442653115  1.131958979466751 0.5777807132556598 0.5777807132556598  0.6518385397961847 0.6550123863239545 0.5000973312050317  0.6519852144685864 0.6550440525905371 0.5776003734808159  0.5554394443651672 0.6549361808855706 0.5000947173739737  0.5556214169407729 0.6549811060384335 0.5775961999784505  0.7481204723451063 0.6551589146620765 0.5001026923792233  0.7482330328575824 0.6551793402625492 0.5776532115292653  0.8442484763888716 0.6553093668679305 0.5001097292276125  0.8443336605245881 0.6553210126111533 0.5777174839864214  0.9402389860936295 0.6554287596291726 0.5001172301987329  0.9403047044646282 0.6554339424871146 0.5777716665569016  1.036141162535433 0.6554935471064955 0.500127684170017  1.036195049173974 0.6554940213867587 0.5778023254756984  1.132041287557307 0.6554540583017046 0.5001353792823123  1.132083151771702 0.6554525574402309 0.5777782835853442  0.652499244323818 0.7325561118544857 0.500100061467412  0.6526389661363192 0.7326032197731621 0.577661179628694  0.5563040996131227 0.7324127681172058 0.5000976487863347  0.5564772357181723 0.7324803347974594 0.5776849892171662  0.7486090702274871 0.7327707718898696 0.5001049773448734  0.7487167092323513 0.7328008055621252 0.5776912398943601  0.8446095326497822 0.7329770514588775 0.5001115703377407  0.844691531434671 0.7329938658472553 0.5777382276841552  0.9405145162992002 0.7331354854312964 0.5001187062179824  0.940578344503371 0.7331425244948379 0.577779708397769  1.036362523260318 0.7332181506980437 0.5001288718642326  1.036415460327319 0.7332181423741566 0.5778014322429341  1.132212225892924 0.7331748488239733 0.5001366323828782  1.132254189505729 0.7331716015631753 0.5777731192534512  0.6532460934954931 0.8102257016599456 0.5001051867911503  0.6533790511345585 0.8102859850561475 0.5777155605399528  0.5573364593102842 0.8100178744557545 0.5001040509819261  0.5575003531390436 0.8101051684597261 0.5777670999139339  0.7491387614074844 0.8104854161622759 0.5001087988926453  0.7492420235746718 0.8105234907021568 0.577724114123302  0.8449884794923895 0.8107208249705506 0.5001143545233875  0.8450679763872715 0.8107418049376344 0.5777553933171742  0.940796250505101 0.8108961685213624 0.5001207501002004  0.9408587857040591 0.8109045013237859 0.577785503608035  1.036582420171505 0.810985083704458 0.5001305345892348  1.036634953663033 0.8109840908420366 0.5777990541245031  1.132378346753362 0.8109548902659602 0.5001379832903302  1.132421356071146 0.8109488714703225 0.5777650244273083  0.6538650002783249 0.8880782743497591 0.5001127912197865  0.6539955469601926 0.8881474818273306 0.5777308852720218  0.5582694930208481 0.8878615274541011 0.5001153738767856  0.5584283202993444 0.8879624652026462 0.5777952068517348  0.7495484720514949 0.8883295176050924 0.5001135492598091  0.7496510112108881 0.8883728710345339 0.5777311886264264  0.8452665561264705 0.8885515648003415 0.500116820705395  0.8453463426847989 0.8885749146235294 0.5777572440146131  0.9410581749159989 0.8887228732153731 0.5777838975041187  1.036782890186878 0.888793909083449 0.5777942402914099  1.132528821236298 0.8887812473565084 0.5777556010236798  0.6540741402418766 0.9661277690352837 0.5001172289412371  0.6542161301874396 0.966197795796665 0.5776626898323802  0.5586892030441017 0.9660140004726165 0.500121600
[...]
<PointData  Vectors="f_34"> 
<DataArray  type="Float64"  Name="f_34"  NumberOfComponents="3" format="ascii">-6.7723880566492284e-02 -3.9796496485653275e-02 -6.8114980340528240e-03  -8.1507139082501526e-02 -3.9710639365165723e-02 -6.8616970226602078e-03  -8.1325685810114720e-02 -3.9790718007878541e-02 -1.1883845089803208e-04  -8.1052919387485142e-02 -3.3642089435712577e-02 -1.2153960057894716e-04  -6.7507406463399894e-02 -3.9914703861311261e-02 -1.1851266901805010e-04  -6.6984390058776044e-02 -3.3884127777458639e-02 -1.2240700329790117e-04  -9.5362960228468782e-02 -3.9604541728612407e-02 -1.2283806158175641e-04  -9.5224139753743997e-02 -3.3354491702041439e-02 -1.2459894299361897e-04  -8.1213345234441653e-02 -3.3554672635688579e-02 6.5324925015517246e-03  -8.1503156504894939e-02 -3.9702864283446944e-02 6.6219320920015432e-03  -6.7717827778655745e-02 -3.9788402944836647e-02 6.5729299634888147e-03  -6.7176254000780547e-02 -3.3758093595430493e-02 6.4456445918735592e-03  -9.5351876318075096e-02 -3.3298958193186401e-02 6.5399757097799483e-03  -9.5504974325016853e-02 -3.9548633795635231e-02 6.5972711224633555e-03  -1.0951087603556277e-01 -3.9426526247626888e-02 -1.2938231130761260e-04  -1.0943483187595555e-01 -3.3099573131358105e-02 -1.3022972351661575e-04  -1.0953504013406179e-01 -3.3068843913061190e-02 6.5144113810693509e-03  -1.0962291691613441e-01 -3.9395900757819131e-02 6.5456171626495103e-03  -1.2370816631794437e-01 -3.9289306935109417e-02 -1.3679992630135022e-04  -1.2365680572911353e-01 -3.2912518364497836e-02 -1.3741644091869393e-04  -1.2373689080988769e-01 -3.2900895541403616e-02 6.4858840581533996e-03  -1.2379764233796944e-01 -3.9278697980833950e-02 6.4965150844840574e-03  -1.3792432742515054e-01 -3.9204776169809032e-02 -1.5030808787283394e-04  -1.3788344502741712e-01 -3.2812278509625377e-02 -1.4776013890001238e-04  -1.3795128021557451e-01 -3.2815697496564877e-02 6.4766455814135393e-03  -1.3800195447703076e-01 -3.9212486304728143e-02 6.4687775767219742e-03  -1.5215027271798062e-01 -3.9181714070060651e-02 -1.5361226945360143e-04  -1.5212910636915641e-01 -3.2814498847992556e-02 -1.5733147087860523e-04  -1.5218641926114784e-01 -3.2828044673616011e-02 6.5211290248842887e-03  -1.5221720386243667e-01 -3.9203131478168902e-02 6.5168142562452092e-03  -8.0279535275450412e-02 -2.7233870391492932e-02 -1.2896066526042578e-04  -8.0437869045527036e-02 -2.7155329067375968e-02 6.5436481479420753e-03  -6.5846647354662557e-02 -2.7452783299409655e-02 -1.3331686214280858e-04  -6.6038236110980586e-02 -2.7339813030957050e-02 6.4669338314645580e-03  -9.4703090090856396e-02 -2.6944917604204255e-02 -1.2917685394668883e-04  -9.4827729851025486e-02 -2.6894843661837642e-02 6.5450366564880702e-03  -1.0907661931041047e-01 -2.6680933931631352e-02 -1.3259215410777887e-04  -1.0917339334316473e-01 -2.6652846871662247e-02 6.5161914361691435e-03  -1.2340145628447226e-01 -2.6485656698834060e-02 -1.3768824978014496e-04  -1.2347770854501830e-01 -2.6474061958046146e-02 6.4861838428289242e-03  -1.3769620212628705e-01 -2.6384523786683815e-02 -1.4679271256508588e-04  -1.3775962616437915e-01 -2.6385125321327377e-02 6.4739349408704603e-03  -1.5200034835723802e-01 -2.6420351343207419e-02 -1.5404956867536726e-04  -1.5205122617715744e-01 -2.6428114070853881e-02 6.5132716040418358e-03  -7.9380822167411491e-02 -2.0613944659412388e-02 -1.2640777961731448e-04  -7.9545907160142426e-02 -2.0551296288709112e-02 6.6107121411505022e-03  -6.4623980151374882e-02 -2.0757904981375044e-02 -1.3044160492632018e-04  -6.4825265703161342e-02 -2.0668271128699497e-02 6.5671761059839136e-03  -9.4057422116662917e-02 -2.0380614015417423e-02 -1.2696748519918632e-04  -9.4186083216219268e-02 -2.0340415175555869e-02 6.5863625423250955e-03  -1.0861060285193576e-01 -2.0154787783190960e-02 -1.3063057036655066e-04  -1.0870930462059641e-01 -2.0131933065181958e-02 6.5386415393000122e-03  -1.2305665433194983e-01 -1.9982909919169626e-02 -1.3583282452928939e-04  -1.2313321790951530e-01 -1.9972908150113145e-02 6.4949588375076937e-03  -1.3743119642819523e-01 -1.9897253571442095e-02 -1.4511877543622889e-04  -1.3749353169412809e-01 -1.9896436337901571e-02 6.4721771063632264e-03  -1.5180580786051748e-01 -1.9950246798198672e-02 -1.5258020399548070e-04  -1.5185393044898532e-01 -1.9954064506868145e-02 6.5037852080886797e-03  -7.8590575608363480e-02 -1.3846705112668131e-02 -1.2316792036738092e-04  -7.8763519095279913e-02 -1.3802905885304638e-02 6.6876719492773105e-03  -6.3599204020290415e-02 -1.3919268739966892e-02 -1.2650702274630011e-04  -6.3810950037865882e-02 -1.3856973933885916e-02 6.6789061012755340e-03  -9.3465681773442569e-02 -1.3692537713439902e-02 -1.2432513143598831e-04  -9.3599653497100116e-02 -1.3664242784357331e-02 6.6351526451039937e-03  -1.0816950838615640e-01 -1.3533360334412433e-02 -1.2852851261780613e-04  -1.0827139601161630e-01 -1.3517094360212404e-02 6.5660296060229091e-03  -1.2272023747816667e-01 -1.3409139679879854e-02 -1.3411126348310048e-04  -1.2279833135843997e-01 -1.3401774502718223e-02 6.5066992009820534e-03  -1.3716548791630753e-01 -1.3350761607909377e-02 -1.4386776760619236e-04  -1.3722809437422262e-01 -1.3349599910145860e-02 6.4726819991256157e-03  -1.5160569988412526e-01 -1.3403537092042566e-02 -1.5144305618572769e-04  -1.5165266849626605e-01 -1.3405274531031981e-02 6.4982730794122629e-03  -7.8063817380224609e-02 -6.9981533749101663e-03 -1.1853254348933575e-04  -7.8242861458551374e-02 -6.9748649882727708e-03 6.7469334274430940e-03  -6.2937295681414013e-02 -7.0248231392707498e-03 -1.2061770559650432e-04  -6.3156816449491684e-02 -6.9917458043104938e-03 6.7634577590816088e-03  -9.3059974244762603e-02 -6.9245306768420173e-03 -1.2084512397215585e-04  -9.3198310090034847e-02 -6.9094609937727256e-03 6.6733261677920609e-03  -1.0786022231304665e-01 -6.8454241538914596e-03 -1.2602528794685268e-04  -1.0796491632190586e-01 -6.8367282953017928e-03 6.5879182993717166e-03  -1.2247901911415091e-01 -6.7835092140577508e-03 -1.3234773626325850e-04  -1.2255870904153236e-01 -6.7795317652587922e-03 6.5166083448772224e-03  -1.3697179125574913e-01 -6.7587403342947144e-03 -1.4269812113333562e-04  -1.3703507760690806e-01 -6.7579372103762636e-03 6.4743437584983089e-03  -1.5145792409742542e-01 -6.7941959704280941e-03 -1.5042145869503286e-04  -1.5150464822301177e-01 -6.7947881220129054e-03 6.4960259551635514e-03  -7.7878571959372353e-02 -1.1471670946379865e-04 -1.1471670946359106e-04  -7.8060196565736165e-02 -1.1249109225285457e-04 6.7701138882195529e-03  -6.2707786885624547e-02 -1.1547942166480006e-04 -1.1547942166480400e-04  -6.2930589899537800e-02 -1.1203392540022059e-04 6.7965244316165879e-03  -9.2914870534096097e-02 -1.1816591566548897e-04 -1.1816591566519329e-04  -9.3055099937498442e-02 -1.1683415520151520e-04 6.6882529533050560e-03  -1.0774755277955943e-01 -1.2423435693827885e-04 -1.2423435693807098e-04  -1.0785350002139410e-01 -1.2352200617880095e-04 6.5965005003225715e-03  -1.2238889469182399e-01 -1.3122312089809519e-04 -1.3122312089778018e-04  -1.2246936279665893e-01 -1.3094689113133837e-04 6.5205365131620376e-03  -1.3689837096177435e-01 -1.4196267997000053e-04 -1.4196267996950036e-04  -1.3696204811223797e-01 -1.4179130374474084e-04 6.4752801828281883e-03  -1.5140072705882501e-01 -1.4979129972967674e-04 -1.4979129972920421e-04  -1.5144749143644459e-01 -1.4960121760089286e-04 6.4956325411426562e-03  -7.8060196565735984e-02 6.7701138882192754e-03 -1.1249109225270235e-04  -7.8240403283078241e-02 6.7511743360978713e-03 6.7511743360980300e-03  -6.2930589899537814e-02 6.7965244316164578e-03 -1.1203392540004075e-04  -6.3151695102889288e-02 6.7702135727096069e-03 6.7702135727095852e-03  -9.3055099937498331e-02 6.6882529533048895e-03 -1.1683415520134570e-04  -9.3194332653910278e-02 6.6757636631269140e-03 6.6757636631271889e-03  -1.0785350002139407e-01 6.5965005003222419e-03 -1.2352200617854518e-04  -1.0795881538615512e-01 6.5891789690384452e-03 6.5891789690387644e-03  -1.2246936279665895e-01 6.5205365131614781e-03 -1.3094689113096872e-04  -1.2254953267957389e-01 6.5170855432267810e-03 6.5170855432273205e-03  -1.3696204811223797e-01 6.4752801828274909e-03 -1.4179130374424538e-04  -1.3702560581230430e-01 6.4747795962522402e-03 6.4747795962528405e-03  -1.5144749143644468e-01 6.4956325411418946e-03 -1.4960121760033184e-04  -1.5149441502872266e-01 6.4965562095146093e-03 6.4965562095154394e-03  -7.8585275643677968e-02 1.3621155322640745e-02 -1.1278632655843352e-04  -7.8760323458584441e-02 1.3581501830152021e-02 6.6950718502154566e-03  -6.3588323605655306e-02 1.3698986667032636e-02 -1.1157497847665734e-04  -6.3803011420620032e-02 1.3643257923286304e-02 6.6907624819988578e-03  -9.3456133093958546e-02 1.3455884136093664e-02 -1.1747720483699120e-04  -9.3591716069051284e-02 1.3429996805810264e-02 6.6394032103878897e-03  -1.0815572705058919e-01 1.3282824898165247e-02 -1.2430005218297448e-04  -1.0825873361291445e-01 1.3267789067203556e-02 6.5682112898680879e-03  -1.2270077436228455e-01 1.3144444144631654e-02 -1.3174586077201124e-04  -1.2277970855226790e-01 1.3137498449888808e-02 6.5075370671870865e-03  -1.3714548679450356e-01 1.3068493483438227e-02 -1.4231757764393942e-04  -1.3720853812952052e-01 1.3067499920638739e-02 6.4734374235579971e-03  -1.5158432580114889e-01 1.3107726145176322e-02 -1.4995123781724932e-04  -1.5163162715444153e-01 1.3109663543801549e-02 6.4992413366636928e-03  -7.9373274419536399e-02 2.0388293827848507e-02 -1.1602680950694333e-04  -7.9540674689718815e-02 2.0329211480317990e-02 6.6185469028652395e-03  -6.4612320200921905e-02 2.0546106263182411e-02 -1.1499839016415650e-04  -6.4817099436154255e-02 2.0462250498309322e-02 6.5800889941371185e-03  -9.4041471306666569e-02 2.0141295737972870e-02 -1.2019321079299762e-04  -9.4171849198418048e-02 2.0103103054614907e-02 6.5908501196850332e-03  -1.0858762105708385e-01 1.9900913797784872e-02 -1.2643945404601078e-04  -1.0868753803935469e-01 1.9879034547348302e-02 6.5409832632992593e-03  -1.2302619949333153e-01 1.9715049208353506e-02 -1.3332832297482320e-04  -1.2310365752565570e-01 1.9705329914066646e-02 6.4960437425969214e-03  -1.3739950752113678e-01 1.9616274467416168e-02 -1.4340747987820674e-04  -1.3746228885464362e-01 1.9615377720017681e-02 6.4730784798589470e-03  -1.5177227414957564e-01 1.9658200289003457e-02 -1.5084097076728046e-04  -1.5182062452044620e-01 1.9661869043673622e-02 6.5049125972441221e-03  -8.0267886202075672e-02 2.7003858154756345e-02 -1.2236793167712392e-04  -8.0428039673106411e-02 2.6928186713928548e-02 6.5499697979909538e-03  -6.5841901002969383e-02 2.7243158865453802e-02 -1.2281126538239413e-04  -6.6036455830222857e-02 2.7134810763017689e-02 6.4774614386156676e-03  -9.4678073986518896e-02 2.6699713733850220e-02 -1.2497658691471621e-04  -9.4804070854584574e-02 2.6651212414235254e-02 6.5488012439290678e-03  -1.0904188524869741e-01 2.6422009840226284e-02 -1.2994532584126198e-04  -1.0913971701780753e-01 2.6394600472059541e-02 6.5183529491219892e-03  -1.2335930141082986e-01 2.6213749125090613e-02 -1.3587970148290420e-04  -1.2343624951234668e-01 2.6202026847592891e-02 6.4874617549977908e-03  -1.3765180613620781e-01 2.6105144776476560e-02 -1.4538195787322031e-04  -1.3771534304340463e-01 2.6105048984672707e-02 6.4746969423489587e-03  -1.5195426448207677e-01 2.6131557152889770e-02 -1.5210494853126584e-04  -1.5200509533153714e-01 2.6138268333745798e-02 6.5144151789534432e-03  -8.1013071610375173e-02 3.3393406792498817e-02 -1.3205577261363443e-04  -8.1171350924028815e-02 3.3306495730032866e-02 6.5304477323363617e-03  -6.6960867428788845e-02 3.3649456133259564e-02 -1.3700161439388509e-04  -6.7150288029555250e-02 3.3524204867022324e-02 6.4417959622204536e-03  -9.5171973449568584e-02 3.3095472304717072e-02 -1.3117903440326809e-04  -9.5298179617596609e-02 3.3040182183720582e-02 6.5396682864976869e-03  -1.0937532660096065e-01 3.2831178514034907e-02 -1.3338524222415897e-04  -1.0947465887961115e-01 3.2800566700348935e-02 6.5157046626192726e-03  -1.2367259783575150e-01 3.2623499209941308e-02 6.4890508498496313e-03  -1.3788614826927487e-01 3.2534492933896438e-02 6.4804015087417850e-03  -1.5212350720263690e-01 3.2542378114742608e-02 6.5265255795880408e-03  -8.1266671170410740e-02 3.9534923396867531e-02 -1.3784642648420839e-04  -8.1440004816670963e-02 3.9446966095876772e-02 6.6161742899942221e-03  -6.7470047982376213e-02 3.9670286461860368e-02 -1.4504043123038694e-04  -6.7675791493735052e-02 3.9543452952499912e-02 6.5625105610822073e-03  -9.5291789866089202e-02 3.9340228628845786e-02 -1.3480523716930416e-04  -9.5431021183359777e-02 3.9284314584585020e-02 6.5952531445809147e-03  -1.0943340293447087e-01 3.9154937003755864e-02 -1.3545030495486156e-04  -1.0954365471622311e-01 3.9124245447647366e-02 6.5466778676598614e-03  -1.2371829626003356e-01 3.9000537341669417e-02 6.4998345743614893e-03  -8.1678854078898203e-02 -3.3320931015929992e-02 1.3141052288248981e-02  -8.2015480909294003e-02 -3.9465526283083176e-02 1.3290850331617790e-02  -6.8338234071566445e-02 -3.9439526543078071e-02 1.3196940682692246e-02  -6.7744482021628888e-02 -3.3413542327537807e-02 1.2981186956125398e-02  -9.5719450180617976e-02 -3.3153653740700152e-02 1.3160517705004492e-02  -9.5911412810155902e-02 -3.9400830902463685e-02 1.3255495396515937e-02  -1.0982347919567063e-01 -3.2991087759473244e-02 1.3122922553692443e-02  -1.0994317334610106e-01 -3.9317573085448032e-02 1.3174145488844984e-02  -1.2396939156177707e-01 -3.2874608284690604e-02 1.3081622734929367e-02  -1.2405619043263258e-01 -3.9255222653104903e-02 1.3098203752073269e-02  -1.3814921852276887e-01 -3.2828963853732587e-02 1.3077501852789044e-02  -1.3822560025728134e-01 -3.9236929324259630e-02 1.3065981908046588e-02  -1.5235556416150786e-01 -3.2868691809288898e-02 1.3166279367213780e-02  -1.5241368310633852e-01 -3.9264534887599595e-02 1.3155330667780765e-02  -8.0902118406795093e-02 -2.6950310958207303e-02 1.3182594799676348e-02  -6.6611515328779444e-02 -2.7038658111143365e-02 1.3052405634699459e-02  -9.5190090008936856e-02 -2.6766898201341902e-02 1.3182496413613064e-02  -1.0945453159496236e-01 -2.6583376300336501e-02 1.3132835018635981e-02  -1.2370121671930015e-01 -2.6447928448354380e-02 1.3084074720884251e-02  -1.3794608398405833e-01 -2.6390194209214794e-02 1.3071662722679143e-02  -1.5220319582059444e-01 -2.6451532430507047e-02 1.3148056756053380e-02  -8.0028655066669285e-02 -2.0390106181211953e-02 1.3316815755549239e-02  -6.5426379950006011e-02 -2.0433174093769310e-02 1.3255851849007620e-02  -9.4558907850751397e-02 -2.0239086780312301e-02 1.3263909942571097e-02  -1.0899493034481765e-01 -2.0076114194554330e-02 1.3176005545523548e-02  -1.2335675827972495e-01 -1.9950432704223434e-02 1.3099770027070294e-02  -1.3767602548086588e-01 -1.9897196776031186e-02 1.3066722296334089e-02  -1.5199707572741650e-01 -1.9967164709936466e-02 1.3128326626035736e-02  -7.9267406313864863e-02 -1.3692798187888098e-02 1.3466811929526458e-02  -6.4440960108567355e-02 -1.3697487622616434e-02 1.3476117945044866e-02  -9.3986198221333347e-02 -1.3594587596008919e-02 1.3357781672693126e-02  -1.0856478350474252e-01 -1.3478370039838677e-02 1.3227725718297521e-02  -1.2302514150308949e-01 -1.3385682966553335e-02 1.3120836535344944e-02  -1.3741029226020329e-01 -1.3349037030226376e-02 1.3066127616714260e-02  -1.5179166024656446e-01 -1.3412456697140241e-02 1.3115812942349127e-02  -7.8762222324922249e-02 -6.9193657284493237e-03 1.3579299361057178e-02  -6.3807092255903960e-02 -6.9114332279884665e-03 1.3638527749658885e-02  -9.3595405912463125e-02 -6.8743763504141167e-03 1.3429311637688521e-02  -1.0826471205752804e-01 -6.8172879220002106e-03 1.3267930806703777e-02  -1.2278879921486380e-01 -6.7715359339934368e-03 1.3138091370149336e-02  -1.3721811300090234e-01 -6.7576343712112538e-03 1.3067681473761214e-02  -1.5164195987874840e-01 -6.7981732619613773e-03 1.3109540912986465e-02  -7.8585275643678051e-02 -1.1278632655852126e-04 1.3621155322640853e-02  -6.3588323605655403e-02 -1.1157497847671766e-04 1.3698986667032819e-02  -9.3456133093958893e-02 -1.1747720483708843e-04 1.3455884136093924e-02  -1.0815572705058954e-01 -1.2430005218334259e-04 1.3282824898165542e-02  -1.2270077436228471e-01 -1.3174586077238892e-04 1.3144444144631954e-02  -1.3714548679450372e-01 -1.4231757764441433e-04 1.3068493483438691e-02  -1.5158432580114900e-01 -1.4995123781782194e-04 1.3107726145176999e-02  -7.8760323458584566e-02 6.6950718502151799e-03 1.3581501830152314e-02  -6.3803011420620087e-02 6.6907624819986427e-03 1.3643257923286417e-02  -9.3591716069051395e-02 6.6394032103874977e-03 1.3429996805810484e-02  -1.0825873361291448e-01 6.5682112898677696e-03 1.3267789067204052e-02  -1.2277970855226818e-01 6.5075370671866580e-03 1.3137498449889182e-02  -1.3720853812952061e-01 6.4734374235573509e-03 1.3067499920639226e-02  -1.5163162715444159e-01 6.4992413366630006e-03 1.3109663543802209e-02  -7.9265211706690639e-02 1.3470800014076962e-02 1.3470800014077080e-02  -6.4434949041612719e-02 1.3484582629108165e-02 1.3484582629108120e-02  -9.3978780952994487e-02 1.3359128372340221e-02 1.3359128372340321e-02  -1.0855235173672746e-01 1.3227618352029905e-02 1.3227618352030219e-02  -1.2300665693903733e-01 1.3119943445808970e-02 1.3119943445809442e-02  -1.3739052948827951e-01 1.3065899098719360e-02 1.3065899098719858e-02  -1.5177042579410446e-01 1.3116126366002829e-02 1.3116126366003759e-02  -8.0024519832135890e-02 2.0167396309105662e-02 1.3321743165587411e-02  -6.5420553221693156e-02 2.0227786050014386e-02 1.3266053759075826e-02  -9.4545211380725677e-02 2.0000624283441855e-02 1.3265841835622716e-02  -1.0897341508395378e-01 1.9821898853022057e-02 1.3176306689450426e-02  -1.2332731076345889e-01 1.9681552298463936e-02 1.3099264371501948e-02  -1.3764450165949713e-01 1.9615051609184649e-02 1.3066723673584527e-02  -1.5196340871591046e-01 1.9674037040248185e-02 1.3128889814899420e-02  -8.0893238210910781e-02 2.6722848028538287e-02 1.3188649811072343e-02  -6.6611769819503536e-02 2.6834401637045955e-02 1.3063432322572297e-02  -9.5166954313171265e-02 2.6522403690616543e-02 1.3185708777845560e-02  -1.0942122417079637e-01 2.6324003447990484e-02 1.3134435731765447e-02  -1.2365984948975499e-01 2.6174402826901616e-02 1.3084772632376993e-02  -1.3790128012289246e-01 2.6108422429073724e-02 1.3071969184065188e-02  -1.5215636790548534e-01 2.6159929322306541e-02 1.3148739499702139e-02  -8.1636060460308663e-02 3.3072146786151155e-02 1.3149404970424680e-02  -6.7717150292717285e-02 3.3179181539722019e-02 1.2991416980953909e-02  -9.5665397506646266e-02 3.2894246846353656e-02 1.3167383013606249e-02  -1.0976309961533998e-01 3.2722203664177982e-02 1.3128913908268366e-02  -1.2390488273474048e-01 3.2596077836247600e-02 1.3087608565566226e-02  -1.3808363663353887e-01 3.2546551850195775e-02 1.3082427709062738e-02  -1.5229187217134982e-01 3.2580380405651151e-02 1.3171444833442235e-02  -8.1950629924768717e-02 3.9209443859566880e-02 1.3301048606673383e-02  -6.8293122481247248e-02 3.9194335245546913e-02 1.3207877175383465e-02  -9.5836887953227368e-02 3.9136312731059761e-02 1.3264742398223263e-02  -1.0986365769768112e-01 3.9045577925118341e-02 1.3182829208004090e-02  -1.2397743490915282e-01 3.8976235638344424e-02 1.3106691927768043e-02  -8.2383134667571759e-02 -3.3000184668152868e-02 1.9657209078576203e-02  -8.2786673366770896e-02 -3.9134091124661714e-02 1.9818928188560084e-02  -6.9304060861421171e-02 -3.8939826290429087e-02 1.9675468553727794e-02  -6.8633319455914610e-02 -3.2927801375376563e-02 1.9438771517744619e-02  -9.6261982712554414e-02 -3.2959350664029885e-02 1.9696772455710811e-02  -9.6508237593614182e-02 -3.9199349729747070e-02 1.9797990062451681e-02  -1.1024186084362500e-01 -3.2890387857852484e-02 1.9664555051370516e-02  -1.1040521087037961e-01 -3.9213688785334863e-02 1.9718720975118335e-02  -1.2430281306793003e-01 -3.2843746931152211e-02 1.9627291758468928e-02  -1.2442555086003637e-01 -3.9226893403145557e-02 1.9644382177756287e-02  -1.3843122700825536e-01 -3.2850855672811104e-02 1.9636133527487713e-02  -1.3854318338328608e-01 -3.9272941566282416e-02 1