<?xml version="1.0"?>
<VTKFile type="UnstructuredGrid"  version="0.1"  >
<UnstructuredGrid>
<Piece  NumberOfPoints="169" NumberOfCells="288">
<Points>
<DataArray  type="Float64"  NumberOfComponents="3"  format="ascii">0 0 0  0.103874316367696 0.04818850855188532 0  0.1999879792818768 0.06597714818480352 0  0.2946893516178257 0.0775307470255167 0  0.3897140617683392 0.08451730830314774 0  0.485374028460232 0.0887401746393395 0  0.5817826650563382 0.09121893450140166 0  0.678922524629035 0.09261069182056181 0  0.7767159912733483 0.09338526202639559 0  0.875058604404423 0.09388043538962496 0  0.9738294063986549 0.09435384354974671 0  1.07289651550755 0.09497554437285449 0  1.172059416979665 0.09581409689753206 0  0 0.08333333333333333 0  0.08960498911548094 0.1160473800287331 0  0.1878271929346473 0.1356676210767018 0  0.286031133637933 0.1483911418066841 0  0.3836557924689 0.1552344254039707 0  0.4812055805761247 0.1591149286824154 0  0.5789555983024167 0.1611164508573785 0  0.6769997634257032 0.1620277416356736 0  0.7753537554584273 0.1623677646170376 0  0.8739945662121452 0.1624975737365372 0  0.9728829939090413 0.1626856046916474 0  1.07196780634523 0.1631221321696162 0  1.1711562550386 0.1639359853379839 0  0 0.1666666666666667 0  0.08747726450257826 0.1886835809327328 0  0.1824892808362846 0.2059307756450454 0  0.2796473923493339 0.2176258500777333 0  0.3779129179052462 0.2243810470578966 0  0.4765116556998391 0.2281639464470584 0  0.5752659935573748 0.2299883934474927 0  0.6741364485933899 0.2307119228918083 0  0.7731130184720294 0.2308653606692221 0  0.8721922703394088 0.2308208768429775 0  0.9713789498715492 0.2308489073943549 0  1.070675171800909 0.2311532058218074 0  1.170050220296015 0.2319617294711674 0  0 0.25 0  0.08675297970684169 0.2655380552597486 0  0.1794226555032698 0.2780470469019992 0  0.2754566867495368 0.2872850336474263 0  0.373528076641584 0.2931488487173721 0  0.47244823458431 0.296500173605347 0  0.5717614095979981 0.2981409884219944 0  0.6712197873621955 0.2987754554016369 0  0.7707141737029092 0.298875428469802 0  0.8702061086549661 0.2987836918815128 0  0.9697036664943963 0.2987468271723473 0  1.069235710946741 0.2989717086671496 0  1.168852955560498 0.2997212987447267 0  0 0.3333333333333333 0  0.08640036169948154 0.3434404015434749 0  0.1780635184018314 0.3515048466016921 0  0.2731429446806963 0.3578629839971059 0  0.3706304681971442 0.3620945473433883 0  0.4694603500125997 0.3646008053290922 0  0.5689862622484484 0.3658797409495917 0  0.6687838342825831 0.3663927362539018 0  0.7686331570650442 0.3664886074240302 0  0.8684363533296341 0.3664268556251123 0  0.9681824131307819 0.3663969480340232 0  1.067916216511208 0.3665744431421798 0  1.167760156707133 0.3671792629298756 0  0 0.4166666666666667 0  0.08623435884560945 0.4219467909985646 0  0.1773694912043776 0.4258924570630259 0  0.2718590771237076 0.4291427708105527 0  0.3689528516429186 0.4313536110029931 0  0.467647591888491 0.4327161748534319 0  0.5672229565770972 0.4334397630409648 0  0.6671784127463126 0.4337545749073921 0  0.7672221095384122 0.4338443660030638 0  0.8672096308460135 0.4338476777290512 0  0.9671097703896336 0.4338661020687382 0  1.066976345608373 0.4340055565838962 0  1.166979352785249 0.4343788406930915 0  0 0.5 0  0.08616535312891102 0.5007185910270147 0  0.1771178530774737 0.5006701305920099 0  0.2714154145078098 0.5007748265808984 0  0.3683616676328985 0.5008226471401946 0  0.466987524813816 0.5008823885897851 0  0.5665649075771205 0.5009395608290536 0  0.6665667086452419 0.5010038761104314 0  0.7666729334223408 0.5010758096135911 0  0.8667221265658605 0.501156238942372 0  0.9666746183278673 0.5012409933672399 0  1.066588933078056 0.5013409616161945 0  1.166649064321818 0.5014299401199032 0  0 0.5833333333333334 0  0.08617652937704086 0.5795323418791568 0  0.1772443002758963 0.5754719769574616 0  0.2717034162388277 0.5724251482821687 0  0.3687744843539495 0.5703002045226915 0  0.4674607858716201 0.5690484608709788 0  0.56703831284288 0.5684368160901194 0  0.6670005394899413 0.5682501379997158 0  0.767049958569799 0.5683046426902812 0  0.8670420122365954 0.5684628386476079 0  0.9669443316021122 0.5686149649350565 0  1.066816028540609 0.5686731117086602 0  1.166819462641452 0.5684761422615386 0  0 0.6666666666666666 0  0.0862731515562087 0.6581678578731778 0  0.1777992479150625 0.6499167760559718 0  0.2727982218427469 0.6437404502729059 0  0.370251016398834 0.6395778525718514 0  0.4690863312304919 0.6371614619263178 0  0.5686229586359177 0.6359860700266253 0  0.6684347628869243 0.6356020284187117 0  0.7682951674142243 0.6356526609541014 0  0.8681061970211378 0.6358779952521011 0  0.9678556417726036 0.6360815520298531 0  1.067598472666699 0.6360951679703082 0  1.167441760037383 0.6356636419138856 0  0 0.75 0  0.08652946681587148 0.7363049653981001 0  0.1790284125357493 0.7235429581368167 0  0.2749747073430838 0.7143901672650276 0  0.3729601619416145 0.7085294586812719 0  0.4718903201961439 0.7052544617478971 0  0.5712301794665442 0.7037048068796991 0  0.6707120465132907 0.7032037413645917 0  0.7702206044525421 0.7032560959862829 0  0.8697196027732698 0.7035147668595452 0  0.9692189598554274 0.703729035350336 0  1.068761826024072 0.7036850942874407 0  1.168375450868052 0.7031091288220023 0  0 0.8333333333333334 0  0.08721386010331855 0.8134022865818028 0  0.1815206795665995 0.7957386779536579 0  0.2787575073589085 0.7841508904821807 0  0.377133210965314 0.7772468141364247 0  0.475811873041318 0.773544191836074 0  0.5746182660852661 0.7718209764429271 0  0.6735098981861224 0.7712460810000741 0  0.7724891588641953 0.7712579613414495 0  0.8715633109584434 0.7714750570954406 0  0.9707429850040766 0.7716270362530847 0  1.070042183458915 0.7714909147851737 0  1.169411135813962 0.7708659426762757 0  0 0.9166666666666666 0  0.08940006315161594 0.8877474347709927 0  0.1870568517439777 0.8657300086189609 0  0.2852334329649657 0.8533839369621834 0  0.3829285581920819 0.8463253656466071 0  0.4805200915878047 0.8425469892391965 0  0.5782558448626063 0.8406932800014191 0  0.676265032932643 0.8399476902850256 0  0.7745820822011028 0.8397782666162559 0  0.8731911494852609 0.8398190121265708 0  0.9720555015661378 0.8398024059103013 0  1.071131316543295 0.8395183712240241 0  1.170322937420387 0.8388876668336913 0  0 1 0  0.09824269636860689 0.955529561667335 0  0.1994456509673273 0.9354187779027046 0  0.2942336861702492 0.9239084479071296 0  0.3892511965111362 0.9169669047678652 0  0.4847476932154101 0.9129245830511373 0  0.5810232235436008 0.9106145844515487 0  0.6780643990399033 0.909391186240035 0  0.775787396237559 0.908782232852726 0  0.874081707701419 0.9084511548336225 0  0.9728242325719771 0.9081452670277143 0  1.071864781362805 0.9076794823952126 0  1.17101999979019 0.9070199951819989 0  </DataArray>
</Points>
<Cells>
<DataArray  type="UInt32"  Name="connectivity"  format="ascii">0 1 14  0 13 14  1 2 15  1 14 15  2 3 16  2 15 16  3 4 17  3 16 17  4 5 18  4 17 18  5 6 19  5 18 19  6 7 20  6 19 20  7 8 21  7 20 21  8 9 22  8 21 22  9 10 23  9 22 23  10 11 24  10 23 24  11 12 25  11 24 25  13 14 27  13 26 27  14 15 28  14 27 28  15 16 29  15 28 29  16 17 30  16 29 30  17 18 31  17 30 31  18 19 32  18 31 32  19 20 33  19 32 33  20 21 34  20 33 34  21 22 35  21 34 35  22 23 36  22 35 36  23 24 37  23 36 37  24 25 38  24 37 38  26 27 40  26 39 40  27 28 41  27 40 41  28 29 42  28 41 42  29 30 43  29 42 43  30 31 44  30 43 44  31 32 45  31 44 45  32 33 46  32 45 46  33 34 47  33 46 47  34 35 48  34 47 48  35 36 49  35 48 49  36 37 50  36 49 50  37 38 51  37 50 51  39 40 53  39 52 53  40 41 54  40 53 54  41 42 55  41 54 55  42 43 56  42 55 56  43 44 57  43 56 57  44 45 58  44 57 58  45 46 59  45 58 59  46 47 60  46 59 60  47 48 61  47 60 61  48 49 62  48 61 62  49 50 63  49 62 63  50 51 64  50 63 64  52 53 66  52 65 66  53 54 67  53 66 67  54 55 68  54 67 68  55 56 69  55 68 69  56 57 70  56 69 70  57 58 71  57 70 71  58 59 72  58 71 72  59 60 73  59 72 73  60 61 74  60 73 74  61 62 75  61 74 75  62 63 76  62 75 76  63 64 77  63 76 77  65 66 79  65 78 79  66 67 80  66 79 80  67 68 81  67 80 81  68 69 82  68 81 82  69 70 83  69 82 83  70 71 84  70 83 84  71 72 85  71 84 85  72 73 86  72 85 86  73 74 87  73 86 87  74 75 88  74 87 88  75 76 89  75 88 89  76 77 90  76 89 90  78 79 92  78 91 92  79 80 93  79 92 93  80 81 94  80 93 94  81 82 95  81 94 95  82 83 96  82 95 96  83 84 97  83 96 97  84 85 98  84 97 98  85 86 99  85 98 99  86 87 100  86 99 100  87 88 101  87 100 101  88 89 102  88 101 102  89 90 103  89 102 103  91 92 105  91 104 105  92 93 106  92 105 106  93 94 107  93 106 107  94 95 108  94 107 108  95 96 109  95 108 109  96 97 110  96 109 110  97 98 111  97 110 111  98 99 112  98 111 112  99 100 113  99 112 113  100 101 114  100 113 114  101 102 115  101 114 115  102 103 116  102 115 116  104 105 118  104 117 118  105 106 119  105 118 119  106 107 120  106 119 120  107 108 121  107 120 121  108 109 122  108 121 122  109 110 123  109 122 123  110 111 124  110 123 124  111 112 125  111 124 125  112 113 126  112 125 126  113 114 127  113 126 127  114 115 128  114 127 128  115 116 129  115 128 129  117 118 131  117 130 131  118 119 132  118 131 132  119 120 133  119 132 133  120 121 134  120 133 134  121 122 135  121 134 135  122 123 136  122 135 136  123 124 137  123 136 137  124 125 138  124 137 138  125 126 139  125 138 139  126 127 140  126 139 140  127 128 141  127 140 141  128 129 142  128 141 142  130 131 144  130 143 144  131 132 145  131 144 145  132 133 146  132 145 146  133 134 147  133 146 147  134 135 148  134 147 148  135 136 149  135 148 149  136 137 150  136 149 150  137 138 151  137 150 151  138 139 152  138 151 152  139 140 153  139 152 153  140 141 154  140 153 154  141 142 155  141 154 155  143 144 157  143 156 157  144 145 158  144 157 158  145 146 159  145 158 159  146 147 160  146 159 160  147 148 161  147 160 161  148 149 162  148 161 162  149 150 163  149 162 163  150 151 164  150 163 164  151 152 165  151 164 165  152 153 166  152 165 166  153 154 167  153 166 167  154 155 168  154 167 168  </DataArray>
<DataArray  type="UInt32"  Name="offsets"  format="ascii">3 6 9 12 15 18 21 24 27 30 33 36 39 42 45 48 51 54 57 60 63 66 69 72 75 78 81 84 87 90 93 96 99 102 105 108 111 114 117 120 123 126 129 132 135 138 141 144 147 150 153 156 159 162 165 168 171 174 177 180 183 186 189 192 195 198 201 204 207 210 213 216 219 222 225 228 231 234 237 240 243 246 249 252 255 258 261 264 267 270 273 276 279 282 285 288 291 294 297 300 303 306 309 312 315 318 321 324 327 330 333 336 339 342 345 348 351 354 357 360 363 366 369 372 375 378 381 384 387 390 393 396 399 402 405 408 411 414 417 420 423 426 429 432 435 438 441 444 447 450 453 456 459 462 465 468 471 474 477 480 483 486 489 492 495 498 501 504 507 510 513 516 519 522 525 528 531 534 537 540 543 546 549 552 555 558 561 564 567 570 573 576 579 582 585 588 591 594 597 600 603 606 609 612 615 618 621 624 627 630 633 636 639 642 645 648 651 654 657 660 663 666 669 672 675 678 681 684 687 690 693 696 699 702 705 708 711 714 717 720 723 726 729 732 735 738 741 744 747 750 753 756 759 762 765 768 771 774 777 780 783 786 789 792 795 798 801 804 807 810 813 816 819 822 825 828 831 834 837 840 843 846 849 852 855 858 861 864 </DataArray>
<DataArray  type="UInt8"  Name="types"  format="ascii">5 5 5 5 5 5 5 5 5 5 5 5 5 5 5 5 5 5 5 5 5 5 5 5 5 5 5 5 5 5 5 5 5 5 5 5 5 5 5 5 5 5 5 5 5 5 5 5 5 5 5 5 5 5 5 5 5 5 5 5 5 5 5 5 5 5 5 5 5 5 5 5 5 5 5 5 5 5 5 5 5 5 5 5 5 5 5 5 5 5 5 5 5 5 5 5 5 5 5 5 5 5 5 5 5 5 5 5 5 5 5 5 5 5 5 5 5 5 5 5 5 5 5 5 5 5 5 5 5 5 5 5 5 5 5 5 5 5 5 5 5 5 5 5 5 5 5 5 5 5 5 5 5 5 5 5 5 5 5 5 5 5 5 5 5 5 5 5 5 5 5 5 5 5 5 5 5 5 5 5 5 5 5 5 5 5 5 5 5 5 5 5 5 5 5 5 5 5 5 5 5 5 5 5 5 5 5 5 5 5 5 5 5 5 5 5 5 5 5 5 5 5 5 5 5 5 5 5 5 5 5 5 5 5 5 5 5 5 5 5 5 5 5 5 5 5 5 5 5 5 5 5 5 5 5 5 5 5 5 5 5 5 5 5 5 5 5 5 5 5 5 5 5 5 5 5 5 5 5 5 5 5 5 5 5 5 5 5 </DataArray>
</Cells>
<PointData  Vectors="f_12"> 
<DataArray  type="Float64"  Name="f_12"  NumberOfComponents="3" format="ascii">0.0000000000000000e+00 0.0000000000000000e+00 0.0000000000000000e+00  -1.1597675440952287e-02 -4.1623253273018378e-02 0.0000000000000000e+00  -2.4188188122919244e-02 -6.2122313791743773e-02 0.0000000000000000e+00  -3.5709482117617562e-02 -7.4418615664073234e-02 0.0000000000000000e+00  -4.7753578713511081e-02 -8.1790127146174063e-02 0.0000000000000000e+00  -6.0567272833227430e-02 -8.6069734761422545e-02 0.0000000000000000e+00  -7.4141238004206550e-02 -8.8446730210931954e-02 0.0000000000000000e+00  -8.8353417963506056e-02 -8.9681753866388297e-02 0.0000000000000000e+00  -1.0305936046531139e-01 -9.0254112547095186e-02 0.0000000000000000e+00  -1.1813167536661834e-01 -9.0463241078529225e-02 0.0000000000000000e+00  -1.3346987265577398e-01 -9.0491636542251577e-02 0.0000000000000000e+00  -1.4900022377624386e-01 -9.0422761071668190e-02 0.0000000000000000e+00  -1.6469716528389125e-01 -9.0105147624469598e-02 0.0000000000000000e+00  0.0000000000000000e+00 0.0000000000000000e+00 0.0000000000000000e+00  -5.6702949357731059e-03 -2.8770093049253292e-02 0.0000000000000000e+00  -1.7212032601800965e-02 -4.9261890532964481e-02 0.0000000000000000e+00  -3.0480119221659004e-02 -6.1538551723926707e-02 0.0000000000000000e+00  -4.4241526821051820e-02 -6.8681294160810424e-02 0.0000000000000000e+00  -5.8331283186555921e-02 -7.2573518658845357e-02 0.0000000000000000e+00  -7.2770330294839050e-02 -7.4553186407217725e-02 0.0000000000000000e+00  -8.7543410440976799e-02 -7.5445685044673791e-02 0.0000000000000000e+00  -1.0260851490236095e-01 -7.5751360071157514e-02 0.0000000000000000e+00  -1.1791574328901101e-01 -7.5759541155616214e-02 0.0000000000000000e+00  -1.3342277746698483e-01 -7.5621394124655128e-02 0.0000000000000000e+00  -1.4909606987175764e-01 -7.5386608029282667e-02 0.0000000000000000e+00  -1.6486952369191155e-01 -7.5025957756756384e-02 0.0000000000000000e+00  0.0000000000000000e+00 0.0000000000000000e+00 0.0000000000000000e+00  -4.4219171068286883e-03 -2.1059852550869795e-02 0.0000000000000000e+00  -1.4088465396412456e-02 -3.7852297940164203e-02 0.0000000000000000e+00  -2.6820558424577284e-02 -4.8637151271811938e-02 0.0000000000000000e+00  -4.0976328995352702e-02 -5.5062247825493751e-02 0.0000000000000000e+00  -5.5766691622182833e-02 -5.8529312456382508e-02 0.0000000000000000e+00  -7.0890771230424324e-02 -6.0211009853532865e-02 0.0000000000000000e+00  -8.6226853843038978e-02 -6.0869450487713514e-02 0.0000000000000000e+00  -1.0171906888034603e-01 -6.0988989941814044e-02 0.0000000000000000e+00  -1.1733672829087514e-01 -6.0844913202424848e-02 0.0000000000000000e+00  -1.3306352680710709e-01 -6.0576540014917461e-02 0.0000000000000000e+00  -1.4888282880632261e-01 -6.0252173834968364e-02 0.0000000000000000e+00  -1.6473510023046031e-01 -5.9960794015442617e-02 0.0000000000000000e+00  0.0000000000000000e+00 0.0000000000000000e+00 0.0000000000000000e+00  -3.8382912913291810e-03 -1.5067584169954126e-02 0.0000000000000000e+00  -1.2442998846109925e-02 -2.7431734381310593e-02 0.0000000000000000e+00  -2.4464122101761760e-02 -3.5953750088479217e-02 0.0000000000000000e+00  -3.8479014711141041e-02 -4.1225978223111637e-02 0.0000000000000000e+00  -5.3519077172503572e-02 -4.4116910759111519e-02 0.0000000000000000e+00  -6.9061907443646237e-02 -4.5483556922964991e-02 0.0000000000000000e+00  -8.4833157069407139e-02 -4.5957842368024332e-02 0.0000000000000000e+00  -1.0070204506066364e-01 -4.5960924418232831e-02 0.0000000000000000e+00  -1.1661189244218163e-01 -4.5735597526187124e-02 0.0000000000000000e+00  -1.3254459342744554e-01 -4.5410644845267967e-02 0.0000000000000000e+00  -1.4849460304020398e-01 -4.5069061976792439e-02 0.0000000000000000e+00  -1.6444453134371606e-01 -4.4846093295717052e-02 0.0000000000000000e+00  0.0000000000000000e+00 0.0000000000000000e+00 0.0000000000000000e+00  -3.5475365108879036e-03 -9.8055995414851969e-03 0.0000000000000000e+00  -1.1593738909162364e-02 -1.7925155379812104e-02 0.0000000000000000e+00  -2.3051991480159448e-02 -2.3742695225019692e-02 0.0000000000000000e+00  -3.6789676150266737e-02 -2.7445626534404893e-02 0.0000000000000000e+00  -5.1853248437351764e-02 -2.9510196890230617e-02 0.0000000000000000e+00  -6.7606589239057310e-02 -3.0470949789818996e-02 0.0000000000000000e+00  -8.3659951371970423e-02 -3.0765846805495038e-02 0.0000000000000000e+00  -9.9803674697171066e-02 -3.0701475268804446e-02 0.0000000000000000e+00  -1.1593906296984981e-01 -3.0462269897173613e-02 0.0000000000000000e+00  -1.3203298020398696e-01 -3.0152025310640589e-02 0.0000000000000000e+00  -1.4808836826257218e-01 -2.9845428952934412e-02 0.0000000000000000e+00  -1.6413421904605380e-01 -2.9666653312831370e-02 0.0000000000000000e+00  0.0000000000000000e+00 0.0000000000000000e+00 0.0000000000000000e+00  -3.4029503284189640e-03 -4.8806862060760932e-03 0.0000000000000000e+00  -1.1155053504874994e-02 -8.9267183189003421e-03 0.0000000000000000e+00  -2.2284852492131180e-02 -1.1876720960713934e-02 0.0000000000000000e+00  -3.5820897482141248e-02 -1.3778890763572454e-02 0.0000000000000000e+00  -5.0850490034976881e-02 -1.4827597847615923e-02 0.0000000000000000e+00  -6.6694188777052799e-02 -1.5285286440389390e-02 0.0000000000000000e+00  -8.2900720453436882e-02 -1.5378827373288799e-02 0.0000000000000000e+00  -9.9207540935779243e-02 -1.5272427332724695e-02 0.0000000000000000e+00  -1.1548260609650389e-01 -1.5067966804404916e-02 0.0000000000000000e+00  -1.3167818091075792e-01 -1.4825607427925908e-02 0.0000000000000000e+00  -1.4780251434408195e-01 -1.4589136617951472e-02 0.0000000000000000e+00  -1.6391892968024063e-01 -1.4433636262758429e-02 0.0000000000000000e+00  0.0000000000000000e+00 0.0000000000000000e+00 0.0000000000000000e+00  -3.3472519332985603e-03 -9.4334939479017566e-05 0.0000000000000000e+00  -1.1010108728635679e-02 -1.7007341294520423e-04 0.0000000000000000e+00  -2.2043944756246891e-02 -2.0132385665889565e-04 0.0000000000000000e+00  -3.5512339038220736e-02 -1.8718973466825487e-04 0.0000000000000000e+00  -5.0526219582165369e-02 -1.1847221454291071e-04 0.0000000000000000e+00  -6.6398355703777417e-02 -1.4368751221651326e-05 0.0000000000000000e+00  -8.2657641555385311e-02 1.1138941387418877e-04 0.0000000000000000e+00  -9.9022305775556360e-02 2.4903341666188502e-04 0.0000000000000000e+00  -1.1534765319727260e-01 3.9321118175643252e-04 0.0000000000000000e+00  -1.3157989274088511e-01 5.3920981135505272e-04 0.0000000000000000e+00  -1.4772953799166308e-01 6.8682041481234657e-04 0.0000000000000000e+00  -1.6387451390669028e-01 8.3027506918745373e-04 0.0000000000000000e+00  0.0000000000000000e+00 0.0000000000000000e+00 0.0000000000000000e+00  -3.3620249854815218e-03 4.7005312888030613e-03 0.0000000000000000e+00  -1.1131221361337288e-02 8.5787720060517738e-03 0.0000000000000000e+00  -2.2289099801460727e-02 1.1466048495416683e-02 0.0000000000000000e+00  -3.5839148150862137e-02 1.3409113949165557e-02 0.0000000000000000e+00  -5.0882486125584228e-02 1.4604501623213764e-02 0.0000000000000000e+00  -6.6742220833877736e-02 1.5273061685211021e-02 0.0000000000000000e+00  -8.2965224628438750e-02 1.5616033319207741e-02 0.0000000000000000e+00  -9.9286467303192599e-02 1.5781207046829174e-02 0.0000000000000000e+00  -1.1557280257528398e-01 1.5861756414881995e-02 0.0000000000000000e+00  -1.3177556754357306e-01 1.5909389455681947e-02 0.0000000000000000e+00  -1.4790430111508268e-01 1.5966373133232049e-02 0.0000000000000000e+00  -1.6402939769554706e-01 1.6096760895503315e-02 0.0000000000000000e+00  0.0000000000000000e+00 0.0000000000000000e+00 0.0000000000000000e+00  -3.4528133137115623e-03 9.6506441970147100e-03 0.0000000000000000e+00  -1.1556004956715471e-02 1.7539448143307140e-02 0.0000000000000000e+00  -2.3062751008098317e-02 2.3308076694450584e-02 0.0000000000000000e+00  -3.6827846747585970e-02 2.7096211670549722e-02 0.0000000000000000e+00  -5.1922677833991487e-02 2.9333112018264492e-02 0.0000000000000000e+00  -6.7709915302587034e-02 3.0508710080489075e-02 0.0000000000000000e+00  -8.3796823548824520e-02 3.1045446114359991e-02 0.0000000000000000e+00  -9.9969560986457179e-02 3.1241202395298526e-02 0.0000000000000000e+00  -1.1612743958879701e-01 3.1276933996595348e-02 0.0000000000000000e+00  -1.3223587682438070e-01 3.1250955019738430e-02 0.0000000000000000e+00  -1.4829972373529240e-01 3.1233120802998688e-02 0.0000000000000000e+00  -1.6436064675118456e-01 3.1337666058470770e-02 0.0000000000000000e+00  0.0000000000000000e+00 0.0000000000000000e+00 0.0000000000000000e+00  -3.6702189407603345e-03 1.4940072901542449e-02 0.0000000000000000e+00  -1.2421558855498692e-02 2.6962176622768414e-02 0.0000000000000000e+00  -2.4500880560209215e-02 3.5510794023191454e-02 0.0000000000000000e+00  -3.8548253202032423e-02 4.0935698928376639e-02 0.0000000000000000e+00  -5.3637745374719742e-02 4.4029420030987927e-02 0.0000000000000000e+00  -6.9235024137671547e-02 4.5606343932174789e-02 0.0000000000000000e+00  -8.5058065205171118e-02 4.6305377038189148e-02 0.0000000000000000e+00  -1.0097050490912751e-01 4.6548601362063291e-02 0.0000000000000000e+00  -1.1691350597086901e-01 4.6581342338023642e-02 0.0000000000000000e+00  -1.3286799079996117e-01 4.6531453421196627e-02 0.0000000000000000e+00  -1.4883038485290523e-01 4.6473153555139597e-02 0.0000000000000000e+00  -1.6479718088055778e-01 4.6530483698670314e-02 0.0000000000000000e+00  0.0000000000000000e+00 0.0000000000000000e+00 0.0000000000000000e+00  -4.2109057135398297e-03 2.0872691802443045e-02 0.0000000000000000e+00  -1.4064334522606111e-02 3.7190275463543927e-02 0.0000000000000000e+00  -2.6863566708794740e-02 4.8233740870911000e-02 0.0000000000000000e+00  -4.1085673771456548e-02 5.4902679153950952e-02 0.0000000000000000e+00  -5.5957527900227108e-02 5.8584256132987997e-02 0.0000000000000000e+00  -7.1161684778941359e-02 6.0448504436136308e-02 0.0000000000000000e+00  -8.6567055101982524e-02 6.1299951985941979e-02 0.0000000000000000e+00  -1.0211466249283903e-01 6.1633163369286682e-02 0.0000000000000000e+00  -1.1777380585586207e-01 6.1726271101523317e-02 0.0000000000000000e+00  -1.3352861800433333e-01 6.1720351465220737e-02 0.0000000000000000e+00  -1.4936427199689595e-01 6.1677015203668951e-02 0.0000000000000000e+00  -1.6522895278033950e-01 6.1664276391291642e-02 0.0000000000000000e+00  0.0000000000000000e+00 0.0000000000000000e+00 0.0000000000000000e+00  -5.7602473218726557e-03 2.8215256189765510e-02 0.0000000000000000e+00  -1.7294260375731601e-02 4.8772433285165902e-02 0.0000000000000000e+00  -3.0586578258632282e-02 6.1502322836041040e-02 0.0000000000000000e+00  -4.4439965201074960e-02 6.8779556016313428e-02 0.0000000000000000e+00  -5.8645123339124999e-02 7.2787633906830462e-02 0.0000000000000000e+00  -7.3179732232347208e-02 7.4898239979519110e-02 0.0000000000000000e+00  -8.8029078861135923e-02 7.5954232266220972e-02 0.0000000000000000e+00  -1.0315414531028619e-01 7.6454161088740494e-02 0.0000000000000000e+00  -1.1850706297666208e-01 7.6681716910657963e-02 0.0000000000000000e+00  -1.3404681229238549e-01 7.6788063108191959e-02 0.0000000000000000e+00  -1.4974267506925218e-01 7.6830181374048415e-02 0.0000000000000000e+00  -1.6552318625942103e-01 7.6750627500800070e-02 0.0000000000000000e+00  0.0000000000000000e+00 0.0000000000000000e+00 0.0000000000000000e+00  -1.0683074398562451e-02 4.0145215640832066e-02 0.0000000000000000e+00  -2.3951434004341441e-02 6.2308826201084501e-02 0.0000000000000000e+00  -3.5821967334998178e-02 7.4580631703458591e-02 0.0000000000000000e+00  -4.8091016781033308e-02 8.1939078791849793e-02 0.0000000000000000e+00  -6.1052054103846932e-02 8.6297513461496778e-02 0.0000000000000000e+00  -7.4728428023098578e-02 8.8817512477337712e-02 0.0000000000000000e+00  -8.9018382286078293e-02 9.0233512526503565e-02 0.0000000000000000e+00  -1.0378545366874889e-01 9.1010541469607784e-02 0.0000000000000000e+00  -1.1890612412941270e-01 9.1440596751981851e-02 0.0000000000000000e+00  -1.3428098477504102e-01 9.1699624826264564e-02 0.0000000000000000e+00  -1.4983667258524153e-01 9.1865923598535182e-02 0.0000000000000000e+00  -1.6554512899911653e-01 9.1862969976613890e-02 0.0000000000000000e+00  </DataArray> 
</PointData> 
</Piece>
</UnstructuredGrid>
</VTKFile>