<?xml version="1.0"?>
<VTKFile type="UnstructuredGrid"  version="0.1"  >
<UnstructuredGrid>
<Piece  NumberOfPoints="613" NumberOfCells="2477">
<Points>
<DataArray  type="Float64"  NumberOfComponents="3"  format="ascii">0 0.4166666666666667 0.4166666666666667  0 0.5 0.4166666666666667  0 0.5 0.5  0.08502635753355137 0.5002309828260371 0.5002309828260371  0.08504197889973489 0.5814852112500265 0.5002264633961803  0 0.5833333333333334 0.5  0.08505753525159616 0.5815003003801897 0.5815003003801898  0 0.5 0.5833333333333334  0 0.5833333333333334 0.5833333333333334  0.1748082038029085 0.5797689846884571 0.5797689846884571  0.0851275756912822 0.6626231458988596 0.581557277390332  0 0.6666666666666666 0.5833333333333334  0.1751208456390862 0.6591659276678734 0.5798631194651136  0.08512757569128225 0.5815572773903321 0.6626231458988596  0 0.5833333333333334 0.6666666666666666  0.08519781041094021 0.662746711693844 0.662746711693844  0 0.6666666666666666 0.6666666666666666  0.1754311876463727 0.6593627390571616 0.6593627390571616  0.2676357471318127 0.5786200663657178 0.5786200663657178  0.2681820127497416 0.6569138145997931 0.5787256160902335  0.2687193202174372 0.6571320469642656 0.6571320469642656  0.3625940347868004 0.577936814755071 0.5779368147550711  0.3632539468914476 0.6556561886374107 0.5780367370213763  0.3638981860048383 0.6558607907259216 0.6558607907259217  0.4586265219771024 0.577623592165463 0.5776235921654629  0.4592706342990605 0.6551154159753458 0.5777075172024709  0.4598962664178985 0.6552849634881137 0.6552849634881138  0.5550695848300031 0.5775323207719011 0.5775323207719013  0.5556214169407729 0.6549811060384335 0.5775961999784505  0.5561561708432023 0.6551085202893655 0.6551085202893656  0.08528421748542601 0.7433849662452886 0.5816476985139323  0.08535567593217513 0.7435733739623974 0.6629433498724263  0 0.75 0.5833333333333334  0 0.75 0.6666666666666666  0.1757554765550561 0.7381072392273703 0.5800055802590117  0.1760631135937858 0.7384059719061133 0.6596600903610682  0.2692086138516308 0.7348620910208336 0.5788816633977748  0.2697318243971356 0.7351946092410176 0.6574545013792302  0.3643998298152339 0.7332226767592662 0.578181813383239  0.3650190414290301 0.7335324030663164 0.6561561318289233  0.4603201656236144 0.7325900688518538 0.577826676116136  0.46091727808247 0.7328436127242085 0.655523592613424  0.5564772357181723 0.7324803347974593 0.5776849892171662  0.5569868221943579 0.7326685327721542 0.6552836397656285  0.08560203989414571 0.8235927213723993 0.5817398737026823  0.08567842583515341 0.8238218899726195 0.6631528811251558  0 0.8333333333333334 0.5833333333333334  0 0.8333333333333334 0.6666666666666666  0.1769583025342983 0.8162794566786885 0.5801507474573017  0.1772688730721524 0.816665969591201 0.6599732300680909  0.2708647881798671 0.8124262015294643 0.5790397963605253  0.2713725718915552 0.8128647295742771 0.6577889547254323  0.3660357549779342 0.8107082717937349 0.5783252157700983  0.3666254826437053 0.8111147816832537 0.6564515938775328  0.4616690562027645 0.8101407282647939 0.5779407171096472  0.4622348056028078 0.8104694173890943 0.6557530807222267  0.5575003531390437 0.8101051684597262 0.5777670999139339  0.5579846130559929 0.8103462644116248 0.6554455974752538  0.08677076409686399 0.9021940810012052 0.5817958666048971  0.0868626370677127 0.9024334627528789 0.6632865253946414  0 0.9166666666666666 0.5833333333333334  0 0.9166666666666666 0.6666666666666666  0.1792762178246916 0.8936673757100699 0.5802401725196601  0.1795841647405998 0.8941182244585694 0.6601679188455717  0.2733457360551402 0.8898964601581797 0.5791233852498988  0.2738310361979963 0.8904149782200018 0.6579706527717172  0.3679436713989109 0.8884091835313371 0.5783928668235357  0.3685082348499875 0.8888857059745464 0.6565926756381232  0.4630320738109465 0.8879555274230727 0.5779865805000579  0.4635795555486592 0.8883363762148 0.6558474353974795  0.5584283202993444 0.8879624652026462 0.5777952068517348  0.5589032480467523 0.888239389764385 0.6555025352355301  0.09005720413154496 0.9786763500448927 0.5817500689998995  0.09008919238405241 0.9789110486288647 0.6631704326559091  0 1 0.5833333333333334  0 1 0.6666666666666666  0.1837473172584047 0.971160906810862 0.5800956072855102  0.1839947155303589 0.9716256325842666 0.6598974306135  0.2758541894725231 0.9681134907304532 0.5789703808083471  0.2763217544387552 0.9686419817576636 0.6576761728738911  0.3694027530763228 0.9667234247853781 0.5782398098037552  0.3699854348581373 0.9672070381370658 0.6563093273019488  0.4638461105813843 0.9662113109030968 0.5778587155487896  0.4644296686619087 0.9665966839285385 0.6556149863370073  0.5588608048718945 0.9661162788896253 0.5776976480046526  0.5593748616706222 0.9663966105765454 0.6553281039413762  0.08535567593217511 0.6629433498724263 0.7435733739623973  0 0.5833333333333334 0.75  0 0.6666666666666666 0.75  0.1760631135937858 0.6596600903610681 0.7384059719061133  0.08551575281962294 0.7438813662472271 0.7438813662472271  0 0.75 0.75  0.1766918490237475 0.7388694955547694 0.7388694955547694  0.2707209549994147 0.7356962155980448 0.7356962155980448  0.2697318243971356 0.6574545013792302 0.7351946092410176  0.3660985097805924 0.7339852588644592 0.7339852588644592  0.3650190414290302 0.6561561318289232 0.7335324030663164  0.4618934830138143 0.7332031540541489 0.7332031540541488  0.46091727808247 0.655523592613424 0.7328436127242084  0.5577802122255181 0.7329282405710364 0.7329282405710364  0.5569868221943579 0.6552836397656286 0.732668532772154  0.08584732146706159 0.8242175953794748 0.7442373449354525  0 0.8333333333333334 0.75  0.1779023957628101 0.8172916883003538 0.7393946643909581  0.2723318161686568 0.813547077940631 0.7362447921591113  0.3676520013831811 0.8117212037078505 0.7344560832018444  0.4631598470730396 0.8109416230269567 0.7335591853841292  0.5587398180636767 0.8106820646948036 0.7331744063230953  0.08705777992015454 0.9028718573460589 0.7445161989509146  0 0.9166666666666666 0.75  0.1802111792627011 0.8948758915886653 0.7397722380746394  0.274748257238461 0.8912475284261034 0.736586380313424  0.3694894002536389 0.8896101480698815 0.7347152434507591  0.464475526625973 0.8888913283207702 0.7337309392561542  0.5596448988883791 0.8886296424794762 0.7332793471414334  0.09018447559655195 0.979335327857263 0.7443742733173365  0 1 0.75  0.1845371118425211 0.9724200145184035 0.7394241900108052  0.2772227137822313 0.9695052962196786 0.7362204282121256  0.3710036017510304 0.9679505563245709 0.7343781962434389  0.465384676407525 0.9671655161867471 0.7334612526838424  0.5601760941028747 0.9667968791951977 0.7330817087751177  0.08567842583515344 0.6631528811251559 0.8238218899726196  0 0.6666666666666666 0.8333333333333334  0.08584732146706157 0.7442373449354525 0.8242175953794748  0 0.75 0.8333333333333334  0.1779023957628101 0.7393946643909581 0.8172916883003539  0.1772688730721524 0.6599732300680911 0.8166659695912011  0.2723318161686569 0.7362447921591112 0.8135470779406311  0.2713725718915553 0.6577889547254323 0.8128647295742772  0.367652001383181 0.7344560832018443 0.8117212037078506  0.3666254826437054 0.6564515938775328 0.8111147816832538  0.4631598470730397 0.7335591853841292 0.8109416230269568  0.4622348056028077 0.6557530807222267 0.8104694173890944  0.5587398180636767 0.7331744063230952 0.8106820646948038  0.5579846130559929 0.6554455974752539 0.8103462644116248  0.08620976444639264 0.8247364007676417 0.8247364007676417  0 0.8333333333333334 0.8333333333333334  0.1791301652707842 0.81807353358579 0.81807353358579  0.2738914484383976 0.8143443873245131 0.8143443873245132  0.3691314539665702 0.8123803594183313 0.8123803594183313  0.4643654570846682 0.811425334904687 0.811425334904687  0.5596595675044176 0.8110099476375313 0.8110099476375312  0.08748886013650278 0.9034936661882058 0.8252611116673538  0 0.9166666666666666 0.8333333333333334  0.1814326273211175 0.895922033173207 0.8187464901489866  0.27622963902088 0.8922738112276274 0.8149248459487498  0.3709065868391994 0.8904283257533192 0.8127997048881398  0.4656457991260298 0.8894781739572781 0.8117001575920668  0.5605520452548851 0.8890223026198334 0.8111790247793335  0.09049611905746696 0.9799514628200166 0.825154096744011  0 1 0.8333333333333334  0.1856720083937671 0.9735689309713229 0.8184418421238727  0.27870266391418 0.9706008732594505 0.8146385353937713  0.3724783349368633 0.9688200777048264 0.8125329853905781  0.4666249388643903 0.9677871402471033 0.8114929430735075  0.5611514300567281 0.9672150518535697 0.8110289257537516  0.08705777992015457 0.7445161989509146 0.9028718573460589  0 0.75 0.9166666666666666  0.180211179262701 0.7397722380746394 0.8948758915886653  0.2747482572384611 0.7365863803134238 0.8912475284261034  0.3694894002536388 0.7347152434507591 0.8896101480698814  0.3685082348499875 0.6565926756381232 0.8888857059745463  0.4644755266259732 0.7337309392561541 0.8888913283207702  0.4635795555486592 0.6558474353974796 0.8883363762148  0.5596448988883791 0.7332793471414334 0.8886296424794762  0.5589032480467525 0.6555025352355301 0.8882393897643851  0.08748886013650273 0.8252611116673539 0.9034936661882058  0 0.8333333333333334 0.9166666666666666  0.1814326273211175 0.8187464901489866 0.895922033173207  0.27622963902088 0.8149248459487499 0.8922738112276272  0.3709065868391994 0.8127997048881397 0.8904283257533191  0.4656457991260298 0.8117001575920668 0.8894781739572781  0.5605520452548852 0.8111790247793335 0.8890223026198334  0.0889190794325362 0.9044290439088069 0.9044290439088069  0 0.9166666666666666 0.9166666666666666  0.1836142311900667 0.8969841292227833 0.8969841292227834  0.2784736594499091 0.8931224876593629 0.893122487659363  0.3726227669197 0.8910170323843973 0.8910170323843972  0.4669068463828611 0.8898600013655193 0.8898600013655193  0.561449567089504 0.8892584927290353 0.8892584927290353  0.09169732234900352 0.9809709195914921 0.9046246411710859  0 1 0.9166666666666666  0.1877912853455584 0.9748686788674801 0.89702417344072
[...]
<PointData  Vectors="f_35"> 
<DataArray  type="Float64"  Name="f_35"  NumberOfComponents="3" format="ascii">0.0000000000000000e+00 0.0000000000000000e+00 0.0000000000000000e+00  0.0000000000000000e+00 0.0000000000000000e+00 0.0000000000000000e+00  0.0000000000000000e+00 0.0000000000000000e+00 0.0000000000000000e+00  -1.9530168227265814e-03 -2.7242113053900686e-04 -2.7242113053904817e-04  -1.9706056084497978e-03 2.1357254945327591e-03 -2.6699918189320641e-04  0.0000000000000000e+00 0.0000000000000000e+00 0.0000000000000000e+00  -1.9881486002838512e-03 2.1179035419689788e-03 2.1179035419690265e-03  0.0000000000000000e+00 0.0000000000000000e+00 0.0000000000000000e+00  0.0000000000000000e+00 0.0000000000000000e+00 0.0000000000000000e+00  -9.3668697352364359e-03 4.1235886393026812e-03 4.1235886393026847e-03  -2.0680641147528735e-03 4.6771164967436950e-03 2.0502430624910256e-03  0.0000000000000000e+00 0.0000000000000000e+00 0.0000000000000000e+00  -9.7238918831406684e-03 8.6900362742726740e-03 4.0102465025348309e-03  -2.0680641147528549e-03 2.0502430624911448e-03 4.6771164967436283e-03  0.0000000000000000e+00 0.0000000000000000e+00 0.0000000000000000e+00  -2.1482410838577280e-03 4.5302031178985520e-03 4.5302031178986058e-03  0.0000000000000000e+00 0.0000000000000000e+00 0.0000000000000000e+00  -1.0078120622668574e-02 8.4528079191060999e-03 8.4528079191061676e-03  -2.0247845349086569e-02 5.4651906314665908e-03 5.4651906314665630e-03  -2.0876782781613784e-02 1.1325113489722583e-02 5.3367772012493089e-03  -2.1495145301875053e-02 1.1059374834373704e-02 1.1059374834373565e-02  -3.3564715388982300e-02 6.2728196046980544e-03 6.2728196046979868e-03  -3.4330179579974508e-02 1.2813745139223896e-02 6.1503123376009470e-03  -3.5077482509373682e-02 1.2562731530839892e-02 1.2562731530839734e-02  -4.8116667949027588e-02 6.6519209947318077e-03 6.6519209947317600e-03  -4.8870134857799001e-02 1.3468131927296512e-02 6.5483371678749557e-03  -4.9602429143268033e-02 1.3258685246154882e-02 1.3258685246155004e-02  -6.3151695102889094e-02 6.7702135727095046e-03 6.7702135727095011e-03  -6.3803011420620004e-02 1.3643257923286245e-02 6.6907624819986852e-03  -6.4434949041612635e-02 1.3484582629108033e-02 1.3484582629108219e-02  -2.2436592206895589e-03 7.6565640975455951e-03 1.9422202305061100e-03  -2.3253851822280678e-03 7.4324179664339044e-03 4.2952710148007542e-03  0.0000000000000000e+00 0.0000000000000000e+00 0.0000000000000000e+00  0.0000000000000000e+00 0.0000000000000000e+00 0.0000000000000000e+00  -1.0453968026336772e-02 1.3796303947428012e-02 3.8380816933979833e-03  -1.0804620172054630e-02 1.3436257620753865e-02 8.0926909707289066e-03  -2.2065186842338689e-02 1.7604808595200500e-02 5.1460276641915326e-03  -2.2666788052401621e-02 1.7200066065789624e-02 1.0664831380616985e-02  -3.5666373701164759e-02 1.9548672228939031e-02 5.9718884990601498e-03  -3.6384670509511691e-02 1.9168926780243827e-02 1.2199269719048804e-02  -5.0103763298656512e-02 2.0315410958678497e-02 6.4008849693228042e-03  -5.0803408914575923e-02 2.0002252091129581e-02 1.2963165660998154e-02  -6.4817099436154199e-02 2.0462250498309301e-02 6.5800889941371177e-03  -6.5420553221693017e-02 2.0227786050014306e-02 1.3266053759075736e-02  -2.6194561950544809e-03 1.1279036287586822e-02 1.8319422555360316e-03  -2.7068018663357089e-03 1.1006815689818645e-02 4.0438671235492243e-03  0.0000000000000000e+00 0.0000000000000000e+00 0.0000000000000000e+00  0.0000000000000000e+00 0.0000000000000000e+00 0.0000000000000000e+00  -1.1848277345337636e-02 1.9821474794920031e-02 3.6601288856063659e-03  -1.2201266286929382e-02 1.9356148471700623e-02 7.7081035939916233e-03  -2.3997397562211163e-02 2.4354592653356738e-02 4.9513475991709820e-03  -2.4580624675285805e-02 2.3821764807763896e-02 1.0252892411044321e-02  -3.7589036859331230e-02 2.6397134937019270e-02 5.7945613727097920e-03  -3.8273330406422015e-02 2.5899432924370240e-02 1.1833837922508205e-02  -5.1700120718369894e-02 2.7081621568867890e-02 6.2592729158222598e-03  -5.2364226819055046e-02 2.6675878038763839e-02 1.2678002388615384e-02  -6.6036455830222870e-02 2.7134810763017686e-02 6.4774614386155747e-03  -6.6611769819503341e-02 2.6834401637045948e-02 1.3063432322572153e-02  -3.9935070216797607e-03 1.6783922349128871e-02 1.7552999553755195e-03  -4.0963764195819296e-03 1.6500890524193727e-02 3.8661199002711392e-03  0.0000000000000000e+00 0.0000000000000000e+00 0.0000000000000000e+00  0.0000000000000000e+00 0.0000000000000000e+00 0.0000000000000000e+00  -1.4558323351913181e-02 2.6778265648373552e-02 3.5473560754752300e-03  -1.4906519324092749e-02 2.6237457765465599e-02 7.4636811515328408e-03  -2.6932448040876595e-02 3.1240533556907042e-02 4.8452649116150380e-03  -2.7488542762613508e-02 3.0612820787060839e-02 1.0022877031432498e-02  -3.9855598698097405e-02 3.2994821574800812e-02 5.7093101901959176e-03  -4.0511222606672712e-02 3.2412465147481889e-02 1.1656703007565760e-02  -5.3329303532129134e-02 3.3531387532152901e-02 6.2012978913962803e-03  -5.3973878662811191e-02 3.3061687157801882e-02 1.2558989012801709e-02  -6.7150288029555125e-02 3.3524204867022227e-02 6.4417959622203192e-03  -6.7717150292717035e-02 3.3179181539721832e-02 1.2991416980953930e-02  -7.7911823667473432e-03 2.4896320575828065e-02 1.7843745962700809e-03  -7.8190594391280965e-03 2.4621510806874105e-02 3.9610125404462787e-03  0.0000000000000000e+00 0.0000000000000000e+00 0.0000000000000000e+00  0.0000000000000000e+00 0.0000000000000000e+00 0.0000000000000000e+00  -1.9913832558357311e-02 3.3585418064604890e-02 3.7130736795033766e-03  -2.0187529013940719e-02 3.3033153718815433e-02 7.7686836025330558e-03  -2.9943442328808224e-02 3.7236243956581885e-02 5.0276373047497052e-03  -3.0477251978229484e-02 3.6599419982492880e-02 1.0374854344853343e-02  -4.1624851860869144e-02 3.8836147801236530e-02 5.8935169256359374e-03  -4.2302928970769593e-02 3.8246679549546352e-02 1.1999000342449126e-02  -5.4314654420692735e-02 3.9435055395766347e-02 6.3573424782177815e-03  -5.5004890977355739e-02 3.8960490534486844e-02 1.2843443837618197e-02  -6.7675791493734969e-02 3.9543452952499704e-02 6.5625105610821613e-03  -6.8293122481247345e-02 3.9194335245546809e-02 1.3207877175383031e-02  -2.3253851822281403e-03 4.2952710148006666e-03 7.4324179664338628e-03  0.0000000000000000e+00 0.0000000000000000e+00 0.0000000000000000e+00  0.0000000000000000e+00 0.0000000000000000e+00 0.0000000000000000e+00  -1.0804620172054634e-02 8.0926909707288788e-03 1.3436257620753796e-02  -2.5046802790540060e-03 7.0642836553836347e-03 7.0642836553835566e-03  0.0000000000000000e+00 0.0000000000000000e+00 0.0000000000000000e+00  -1.1526447537653525e-02 1.2874476055906263e-02 1.2874476055906237e-02  -2.3810595916892763e-02 1.6586580993696563e-02 1.6586580993696583e-02  -2.2666788052401594e-02 1.0664831380616949e-02 1.7200066065789735e-02  -3.7643900439276561e-02 1.8611886425862981e-02 1.8611886425863037e-02  -3.6384670509511850e-02 1.2199269719048758e-02 1.9168926780244084e-02  -5.1953175187594784e-02 1.9556981446595640e-02 1.9556981446595699e-02  -5.0803408914575868e-02 1.2963165660998205e-02 2.0002252091129581e-02  -6.6364118864670016e-02 1.9903520486615756e-02 1.9903520486615634e-02  -6.5420553221693017e-02 1.3266053759075795e-02 2.0227786050014119e-02  -2.8950451765111895e-03 1.0534464697812534e-02 6.6346961074928417e-03  0.0000000000000000e+00 0.0000000000000000e+00 0.0000000000000000e+00  -1.2927009506908260e-02 1.8598175881750778e-02 1.2228969636096439e-02  -2.5688802215874777e-02 2.2988601905803797e-02 1.5911633882540046e-02  -3.9471429243816518e-02 2.5154298743635152e-02 1.8029808347558560e-02  -5.3456098473438504e-02 2.6091232124838170e-02 1.9114576500921739e-02  -6.7512988053964856e-02 2.6414939477351101e-02 1.9595322498135174e-02  -4.3100144375426211e-03 1.5981860674917803e-02 6.2714785482676687e-03  0.0000000000000000e+00 0.0000000000000000e+00 0.0000000000000000e+00  -1.5622300212125954e-02 2.5323885061782868e-02 1.1757143764117651e-02  -2.8546361766769422e-02 2.9598851500246246e-02 1.5483438895551612e-02  -4.1657938794971296e-02 3.1524022166086872e-02 1.7705910514724584e-02  -5.5035129189795209e-02 3.2374832015238962e-02 1.8899215729376119e-02  -6.8606442038274318e-02 3.2691660933147577e-02 1.9462949384727850e-02  -7.9105774314408971e-03 2.4125395119678410e-02 6.3824221270671454e-03  0.0000000000000000e+00 0.0000000000000000e+00 0.0000000000000000e+00  -2.0798220601940701e-02 3.2084652901598065e-02 1.2142020165517022e-02  -3.1515005721483261e-02 3.5551823633308437e-02 1.5921980376671970e-02  -4.3496555498107548e-02 3.7337055262105859e-02 1.8113653958000856e-02  -5.6141959142948700e-02 3.8256998382966229e-02 1.9230159517581905e-02  -6.9259728462934766e-02 3.8694512531324735e-02 1.9708651201770084e-02  -2.7068018663357236e-03 4.0438671235492017e-03 1.1006815689818717e-02  0.0000000000000000e+00 0.0000000000000000e+00 0.0000000000000000e+00  -2.8950451765112155e-03 6.6346961074928625e-03 1.0534464697812549e-02  0.0000000000000000e+00 0.0000000000000000e+00 0.0000000000000000e+00  -1.2927009506908232e-02 1.2228969636096654e-02 1.8598175881750740e-02  -1.2201266286929370e-02 7.7081035939916831e-03 1.9356148471700644e-02  -2.5688802215874808e-02 1.5911633882540074e-02 2.2988601905803756e-02  -2.4580624675285878e-02 1.0252892411044458e-02 2.3821764807763914e-02  -3.9471429243816566e-02 1.8029808347558473e-02 2.5154298743635069e-02  -3.8273330406422036e-02 1.1833837922508215e-02 2.5899432924370108e-02  -5.3456098473438511e-02 1.9114576500921670e-02 2.6091232124838049e-02  -5.2364226819054963e-02 1.2678002388615398e-02 2.6675878038763756e-02  -6.7512988053964981e-02 1.9595322498135174e-02 2.6414939477351285e-02  -6.6611769819503383e-02 1.3063432322572155e-02 2.6834401637046069e-02  -3.3213402980336198e-03 9.9022157164098037e-03 9.9022157164097898e-03  0.0000000000000000e+00 0.0000000000000000e+00 0.0000000000000000e+00  -1.4343914834548832e-02 1.7638388860417825e-02 1.7638388860417999e-02  -2.7505694291295624e-02 2.2008901187872906e-02 2.2008901187873020e-02  -4.1214361984008185e-02 2.4340339204370749e-02 2.4340339204370624e-02  -5.4890852624580343e-02 2.5490130709076724e-02 2.5490130709076665e-02  -6.8618513489645636e-02 2.6004126606386301e-02 2.6004126606386162e-02  -4.8077415986424472e-03 1.5233406638817315e-02 9.2186074875080740e-03  0.0000000000000000e+00 0.0000000000000000e+00 0.0000000000000000e+00  -1.7025612793475343e-02 2.4039959984965116e-02 1.6805948922354274e-02  -3.0271612193157511e-02 2.8344126913495880e-02 2.1284476893815525e-02  -4.3332539424435920e-02 3.0514107982075517e-02 2.3819620691106169e-02  -5.6433096182592887e-02 3.1645657048129723e-02 2.5146171977982443e-02  -6.9702571045547432e-02 3.2199460505360503e-02 2.5791271867076446e-02  -8.2537749968639874e-03 2.3400113754071545e-02 9.2744896403725331e-03  0.0000000000000000e+00 0.0000000000000000e+00 0.0000000000000000e+00  -2.2097737113063776e-02 3.0688111105667996e-02 1.7128405911362748e-02  -3.3239769693097665e-02 3.4218453900662672e-02 2.1625140755657087e-02  -4.5247418260336597e-02 3.6264139120449061e-02 2.4144148034651463e-02  -5.7630597165265571e-02 3.7485775223099017e-02 2.5399768539335600e-02  -7.0445498852908739e-02 3.8170213060152593e-02 2.5978338549219639e-02  -4.3100144375425552e-03 6.2714785482676115e-03 1.5981860674917830e-02  0.0000000000000000e+00 0.0000000000000000e+00 0.0000000000000000e+00  -1.5622300212126006e-02 1.1757143764117666e-02 2.5323885061782812e-02  -2.8546361766769394e-02 1.5483438895551423e-02 2.9598851500246322e-02  -4.1657938794971386e-02 1.7705910514724539e-02 3.1524022166086900e-02  -4.0511222606672635e-02 1.1656703007565723e-02 3.2412465147481855e-02  -5.5035129189795196e-02 1.8899215729376039e-02 3.2374832015239108e-02  -5.3973878662811364e-02 1.2558989012801667e-02 3.3061687157801965e-02  -6.8606442038274262e-02 1.9462949384728034e-02 3.2691660933147425e-02  -6.7717150292717118e-02 1.2991416980953917e-02 3.3179181539721825e-02  -4.8077415986424957e-03 9.2186074875081712e-03 1.5233406638817278e-02  0.0000000000000000e+00 0.0000000000000000e+00 0.0000000000000000e+00  -1.7025612793475298e-02 1.6805948922354323e-02 2.4039959984965050e-02  -3.0271612193157538e-02 2.1284476893815685e-02 2.8344126913495752e-02  -4.3332539424435865e-02 2.3819620691106304e-02 3.0514107982075468e-02  -5.6433096182592929e-02 2.5146171977982797e-02 3.1645657048129612e-02  -6.9702571045547418e-02 2.5791271867076353e-02 3.2199460505360537e-02  -6.4328809634598971e-03 1.4011560006091068e-02 1.4011560006091106e-02  0.0000000000000000e+00 0.0000000000000000e+00 0.0000000000000000e+00  -1.9560867541468858e-02 2.2742483298637747e-02 2.2742483298637834e-02  -3.2937274771209363e-02 2.7289649547866234e-02 2.7289649547866258e-02  -4.5385865305418958e-02 2.9784032729121696e-02 2.9784032729121643e-02  -5.7959445933841863e-02 3.1168350194919963e-02 3.1168350194920150e-02  -7.0798881935188296e-02 3.1902185131443120e-02 3.1902185131443127e-02  -9.6227632549921137e-03 2.2108365787093940e-02 1.3744431628515637e-02  0.0000000000000000e+00 0.0000000000000000e+00 0.0000000000000000e+00  -2.4543981518975602e-02 2.9113002444679160e-02 2.2598260827905038e-02  -3.5981343975807052e-02 3.2912988939660208e-02 2.7326855323435952e-02  -4.7363828735446749e-02 3.5388852804265611e-02 2.9837580799801217e-02  -5.9255690245928958e-02 3.6898792817941263e-02 3.1232076963175256e-02  -7.1624935165591264e-02 3.7796752886658652e-02 3.1955677190412882e-02  -5.6141959142948679e-02 1.9230159517581970e-02 3.8256998382966215e-02  -4.3496555498107548e-02 1.8113653958000860e-02 3.7337055262105866e-02  -6.9259728462934725e-02 1.9708651201770039e-02 3.8694512531324665e-02  -8.2537749968640845e-03 9.2744896403725557e-03 2.3400113754071552e-02  -7.9105774314408763e-03 6.3824221270671905e-03 2.4125395119678397e-02  0.0000000000000000e+00 0.0000000000000000e+00 0.0000000000000000e+00  0.0000000000000000e+00 0.0000000000000000e+00 0.0000000000000000e+00  -2.2097737113063773e-02 1.7128405911362877e-02 3.0688111105667982e-02  -2.0798220601940573e-02 1.2142020165516970e-02 3.2084652901598017e-02  -3.3239769693097734e-02 2.1625140755657125e-02 3.4218453900662735e-02  -3.1515005721483441e-02 1.5921980376671897e-02 3.5551823633308416e-02  -4.5247418260336666e-02 2.4144148034651654e-02 3.6264139120449075e-02  -5.7630597165265508e-02 2.5399768539335742e-02 3.7485775223098990e-02  -7.0445498852908933e-02 2.5978338549219746e-02 3.8170213060152537e-02  -9.6227632549921466e-03 1.3744431628515632e-02 2.2108365787093978e-02  0.0000000000000000e+00 0.0000000000000000e+00 0.0000000000000000e+00  -2.4543981518975640e-02 2.2598260827904983e-02 2.9113002444679133e-02  -3.5981343975807011e-02 2.7326855323435973e-02 3.2912988939660236e-02  -4.7363828735446756e-02 2.9837580799801148e-02 3.5388852804265548e-02  -5.9255690245929027e-02 3.1232076963175096e-02 3.6898792817941159e-02  -7.1624935165591277e-02 3.1955677190412667e-02 3.7796752886658611e-02  -1.2381302394588211e-02 2.1073022143242321e-02 2.1073022143242300e-02  0.0000000000000000e+00 0.0000000000000000e+00 0.0000000000000000e+00  -3.0415088906332950e-02 2.8131973572724910e-02 2.8131973572724796e-02  -3.9016859735725364e-02 3.2479904262800348e-02 3.2479904262800167e-02  -4.9525475235726903e-02 3.5110192906211667e-02 3.5110192906211479e-02  -6.0675322860968030e-02 3.6737713850588979e-02 3.6737713850588778e-02  -7.2538771738613159e-02 3.7700464270296351e-02 3.7700464270295976e-02  0.0000000000000000e+00 0.0000000000000000e+00 0.0000000000000000e+00  0.0000000000000000e+00 0.0000000000000000e+00 0.0000000000000000e+00  -9.8721184139462740e-03 -4.5316742589293331e-03 -2.5455195292365479e-02  -4.1989448907512579e-03 -4.4237780058708825e-03 -1.7938123684781971e-02  0.0000000000000000e+00 0.0000000000000000e+00 0.0000000000000000e+00  -3.1462138766291975e-02 -1.6199511510091653e-02 -3.5661112760554739e-02  -4.3503512934821624e-02 -1.8343691948368390e-02 -3.7551465010403080e-02  -4.2298403820185855e-02 -1.2264802448766564e-02 -3.8450043932109136e-02  -4.0559308541669968e-02 -1.1923609057404590e-02 -3.2594878281648462e-02  -4.1716142173663061e-02 -1.7941295834364508e-02 -3.1712278520011988e-02  -3.0398836342277039e-02 -1.0705669305890812e-02 -3.6697228856831250e-02  -2.7395713866516444e-02 -1.0345270664629527e-02 -3.0875153934001091e-02  -5.5033155871154725e-02 -1.3084935458763115e-02 -3.9200886311178594e-02  -5.3992041287051130e-02 -1.2802583645732665e-02 -3.3302897418777892e-02  -9.8209393919313579e-03 -2.3058501290433488e-03 -2.5797694933504776e-02  -4.0730409419718061e-03 -2.2681609528213166e-03 -1.8256757662692465e-02  0.0000000000000000e+00 0.0000000000000000e+00 0.0000000000000000e+00  0.0000000000000000e+00 0.0000000000000000e+00 0.0000000000000000e+00  -1.9993784261918560e-02 -8.1582672992286855e-03 -3.2777165394790371e-02  -1.9670089369070422e-02 -4.0918821764748762e-03 -3.3356587518069136e-02  -1.4863601544600622e-02 -3.9158951171656287e-03 -2.6657181108575498e-02  -1.5261165637841230e-02 -7.8288887397175121e-03 -2.6090303745350697e-02  -2.9824482765728962e-02 -5.3815666124621591e-03 -3.7341693182362946e-02  -2.6804479869533795e-02 -5.1891797955754245e-03 -3.1510685865900681e-02  -4.1594454229519538e-02 -6.1905299646074713e-03 -3.9033718952082491e-02  -3.9880967108480138e-02 -6.0030750815005165e-03 -3.3173350819482042e-02  -5.4330554087201825e-02 -6.6229608704126411e-03 -3.9667078544067015e-02  -5.3338108367009210e-02 -6.4650066229419477e-03 -3.3763086888433817e-02  -6.7723880566492339e-02 -6.8114980340527763e-03 -3.9796496485653372e-02  -6.7183593338614914e-02 -6.6909898200652211e-03 -3.3767395294686926e-02  -9.8002431464808484e-03 -1.9970835309982658e-04 -2.5921649714219411e-02  -4.0284464322150699e-03 -2.4679411199926012e-04 -1.8372702376626943e-02  0.0000000000000000e+00 0.0000000000000000e+00 0.0000000000000000e+00  0.0000000000000000e+00 0.0000000000000000e+00 0.0000000000000000e+00  -1.9560264063659995e-02 -1.7778088648438519e-04 -3.3556740621114384e-02  -1.4726508613539477e-02 -1.7480897448357327e-04 -2.6853506240884135e-02  -2.9631266613040157e-02 -1.5652539375988941e-04 -3.7563112116807670e-02  -2.6603220067249037e-02 -1.6484130789175798e-04 -3.1729807689856254e-02  -4.1355956464764324e-02 -1.3739027467124515e-04 -3.9234908002998461e-02  -3.9650190746096839e-02 -1.4347285846232828e-04 -3.3372616445306959e-02  -5.4089764372983740e-02 -1.2411891850345832e-04 -3.9828377801955993e-02  -5.3113267399683646e-02 -1.2908572720640073e-04 -3.3922423100682539e-02  -6.7507406463399797e-02 -1.1851266901812897e-04 -3.9914703861311275e-02  -6.6984390058776017e-02 -1.2240700329814929e-04 -3.3884127777458556e-02  -9.7923219301847709e-03 1.8919322248449858e-03 -2.5836374198279912e-02  -4.0488433895620214e-03 1.7590616217095006e-03 -1.8293680227543799e-02  0.0000000000000000e+00 0.0000000000000000e+00 0.0000000000000000e+00  0.0000000000000000e+00 0.0000000000000000e+00 0.0000000000000000e+00  -1.9624978390970587e-02 3.7302748442087255e-03 -3.3384786782291821e-02  -1.4816820656943513e-02 3.5593438114307901e-03 -2.6681732699259553e-02  -2.9785724593890641e-02 5.0682114055913725e-03 -3.7354125122835646e-02  -2.6765564398640612e-02 4.8584595566706504e-03 -3.1520442940363089e-02  -4.1568850081489001e-02 5.9160226123011134e-03 -3.9034295721730443e-02  -3.9854961047808966e-02 5.7175859429988334e-03 -3.3171390109123483e-02  -5.4317925626605701e-02 6.3747429388559098e-03 -3.9660886758719739e-02  -5.3324797812657497e-02 6.2077854421174429e-03 -3.3754891149637048e-02  -6.7717827778655523e-02 6.5729299634886716e-03 -3.9788402944836640e-02  -6.7176254000780547e-02 6.4456445918735887e-03 -3.3758093595430361e-02  -9.8058596325678645e-03 4.0802170931890274e-03 -2.5533779166336062e-02  -4.1445385107656586e-03 3.8670433996341514e-03 -1.8011411272675068e-02  0.0000000000000000e+00 0.0000000000000000e+00 0.0000000000000000e+00  0.0000000000000000e+00 0.0000000000000000e+00 0.0000000000000000e+00  -1.9897690231997580e-02 7.7850708363106768e-03 -3.2829965106541396e-02  -1.5162331588471122e-02 7.459232335462