<?xml version="1.0"?>
<VTKFile type="UnstructuredGrid"  version="0.1"  >
<UnstructuredGrid>
<Piece  NumberOfPoints="649" NumberOfCells="2662">
<Points>
<DataArray  type="Float64"  NumberOfComponents="3"  format="ascii">0 0 0  0.09784449177557024 0.01826909624697694 0.01826909624697693  0.093685806890971 0.09615887770911424 0.0195974478376103  0.0890390051813445 0.09686588025844908 0.09686588025844903  0.09368580689097099 0.01959744783761021 0.09615887770911427  0 0 0.08333333333333333  0 0.08333333333333333 0  0 0.08333333333333333 0.08333333333333333  0.191289874074181 0.02433339172484061 0.02433339172484054  0.1877612583644983 0.1030570942883389 0.0249079605234823  0.1840840062472066 0.1028900919078601 0.10289009190786  0.1877612583644983 0.0249079605234823 0.103057094288339  0.2833951850300054 0.02815129937733645 0.0281512993773364  0.2808445373206528 0.1070336301453419 0.02852106671157682  0.278288323464635 0.1070643734201786 0.1070643734201786  0.2808445373206529 0.02852106671157677 0.1070336301453421  0.3759442757951524 0.03044037220835683 0.0304403722083566  0.3742346955452412 0.1092060282149524 0.03066213295750753  0.3726143463550134 0.1091571896601923 0.1091571896601923  0.3742346955452411 0.03066213295750746 0.1092060282149527  0.4691214562680416 0.03181852824296123 0.03181852824296129  0.4679931132404463 0.1103815184660609 0.03195298948577326  0.4669337324267044 0.1103402028588276 0.1103402028588278  0.4679931132404463 0.03195298948577337 0.1103815184660609  0.5629153226521766 0.03262853925496974 0.0326285392549699  0.5621824205600909 0.1109886021078839 0.03270781411645125  0.5615078766384246 0.1109534222131577 0.1109534222131577  0.5621824205600908 0.03270781411645132 0.1109886021078838  0.09232274719237697 0.1755642175432555 0.02068233312140851  0.0875635163635787 0.1753990397066148 0.09760340595020034  0 0.1666666666666667 0  0 0.1666666666666667 0.08333333333333333  0.1855613730280216 0.1817643570614941 0.02615916950900663  0.1818787328165371 0.1814099237941136 0.1038953438600941  0.2786886023479491 0.1855455576818026 0.02953593375035145  0.2761545157648308 0.1852612575937568 0.1079726233788758  0.3724775601293575 0.1876299678208837 0.03137937799299881  0.370930402002092 0.1873653230624144 0.1097556497060044  0.4666613510924658 0.1886850742738314 0.03243168974725841  0.4656661124820874 0.1884865293193364 0.1107402751737511  0.5612141864954348 0.1891629789645 0.03301406618157084  0.5605985685595005 0.1890204153347418 0.1112020093362051  0.09195603125233247 0.2561829835576553 0.02143233050777894  0.08716297121788392 0.2560109541097109 0.09828542820595518  0 0.25 0  0 0.25 0.08333333333333333  0.1844004011338019 0.2608871054589831 0.02728204265266893  0.1806058292725548 0.2605371490295593 0.1049602035018015  0.2772040240816469 0.2640131574878587 0.03060779194872485  0.2746872413435839 0.2636436531958286 0.1089711485631613  0.3710274829351578 0.2658150363882177 0.03223392385513194  0.3695405001640227 0.2654826103378729 0.1105580522499193  0.465426125824211 0.2667239923939477 0.03304953819385845  0.46450278884362 0.2664607216809757 0.1113239956412546  0.5602385308525432 0.2671089327033647 0.03343231385634191  0.5596906713247241 0.2669175595489532 0.1115943952371196  0.09182349718139639 0.3373140097781448 0.02193110630195095  0.08692274479576259 0.3371780455417955 0.09874967898345614  0 0.3333333333333333 0  0 0.3333333333333333 0.08333333333333333  0.183802863988286 0.3404172372887128 0.02809640446648494  0.1799057165209902 0.3401362910809225 0.1057441749106066  0.2762798954859835 0.3425991756881663 0.0314604127984331  0.2737587752074743 0.3422968344356395 0.1097958113051174  0.3699997339359315 0.3439123890587689 0.03296653322637799  0.3685500032505554 0.3436304066957543 0.1112756082477744  0.4644701563305967 0.3445882163333665 0.03360987619555237  0.4636068240190772 0.3443581188261063 0.1118709077801558  0.5594348712750488 0.3448701877770547 0.03382739359846366  0.5589463761014041 0.34469973977865 0.1119790188356595  0.09177348120458324 0.4186894914394617 0.02222061714627161  0.0868125656695537 0.4186342163966724 0.0990170629760834  0 0.4166666666666667 0  0 0.4166666666666667 0.08333333333333333  0.1835142254804015 0.4202169287787217 0.0285805606661272  0.1795576972308101 0.4200658701685955 0.1062140713912408  0.2757780367170695 0.4213234660040516 0.03199228827513543  0.2732437377431198 0.4211620736767596 0.110318842836977  0.3693962930814711 0.4220060617892828 0.03344367783281638  0.3679668200687762 0.4218510801081354 0.1117470973314044  0.4638762433104483 0.4223630275833305 0.03398737858816794  0.4630508826530174 0.422234201620054 0.1122431497592831  0.5589145435436044 0.4225128300671144 0.03410045633256576  0.558465488088813 0.4224158512802432 0.1122482689913271  0.09175419076546962 0.5001707338255346 0.02232589429627927  0.08677385972640331 0.5002070092134301 0.09911471487120319  0 0.5 0  0 0.5 0.08333333333333333  0.1834171173115722 0.5001485322640621 0.02874700555977671  0.1794385461922628 0.5001447286267584 0.1063757745239758  0.2756098997334854 0.500129861426273 0.03217449919073571  0.2730691827720443 0.5001373910197802 0.1104983947452817  0.3691922324481551 0.5001139248135299 0.03360774829547033  0.3677687337478359 0.500119158523636 0.1119091219447639  0.463672841698345 0.5001038082207386 0.03411777611838021  0.4628597624550058 0.5001080203933383 0.1123718039884017  0.5587340027855521 0.5001004976226581 0.03419512258448778  0.5582981661535922 0.5001036444226943 0.1123416546905768  0.09175010049773084 0.5816631833606174 0.02225420217803387  0.08679315035729059 0.5817924475461312 0.09904860207856671  0 0.5833333333333334 0  0 0.5833333333333334 0.08333333333333333  0.1834780440784256 0.5800848138222243 0.02860116407912001  0.1795202642947413 0.5802287215227084 0.1062313605867921  0.2757476016357309 0.5789362209848162 0.03200000747033784  0.2732126657788184 0.579112933007355 0.1103246348883248  0.3693772375101512 0.5782216497318885 0.03344233373246174  0.3679467532277962 0.5783860521478554 0.1117437167667488  0.4638673820837377 0.5778449136562223 0.0339813687508746  0.4630408204258681 0.5779812541616937 0.1122355852052943  0.5589105866449164 0.5776897249771227 0.03409353985339918  0.5584600620747503 0.5777921051674653 0.1122403417190662  0.09176943288400352 0.6630694910867864 0.02199978612050654  0.08687948175640513 0.6632872234369669 0.0988123129923663  0 0.6666666666666666 0  0 0.6666666666666666 0.08333333333333333  0.1837269505381123 0.6598936612944829 0.02813450890120266  0.1798274141272307 0.6601688768807502 0.1057760767811393  0.2762218938522484 0.6576629588718765 0.03147180804538637  0.2737011221770079 0.657976583302089 0.1098031790248398  0.3699678023718513 0.656313430570696 0.0329599635215343  0.3685146542747444 0.6566017238287444 0.1112668687946625  0.4644560739384335 0.6556222600361249 0.03359685923609837  0.4635911902464868 0.6558563365840585 0.111855195561974  0.5594287246415757 0.6553374771887244 0.03381382989963377  0.5589375537720112 0.655510642581928 0.1119641816722249  0.09187518015608015 0.7442409996220154 0.02153745380920142  0.08707173380366391 0.7445357937317145 0.09838461121573008  0 0.75 0  0 0.75 0.08333333333333333  0.1842734098982581 0.739464118642268 0.02733785187803949  0.1804607038786259 0.7397927701178211 0.1050046155154285  0.277137671857004 0.7362399530161375 0.03060792959245104  0.2746233968741664 0.7366150962477698 0.1089685368839224  0.3709919259855743 0.7344133590597587 0.03221821168573302  0.3694992238954293 0.7347445594491131 0.1105436531154072  0.4654147494810458 0.7334930468208782 0.03302825291053579  0.4644898830885428 0.7337548310848435 0.111301727722763  0.5602313377122857 0.7331090125665177 0.03341421517672549  0.5596806376856692 0.7332985300124225 0.1115758545771015  0.09215488093077288 0.8251154503802121 0.02087134815612405  0.08749310359826205 0.8253194165227248 0.09774812242407159  0 0.8333333333333334 0  0 0.8333333333333334 0.08333333333333333  0.1854223226623044 0.8185287655256429 0.02615392781457009  0.1816853116400712 0.8187951037124191 0.1039482361550755  0.2786175335285238 0.8146971272323723 0.02951746670197965  0.2761056406080957 0.8149904061695362 0.1079487165273757  0.3724689718690199 0.8125967322823803 0.0313451306050154  0.3709199191267988 0.8128487991203075 0.1097264427912635  0.4666556513249801 0.8115434041599261 0.0324065543885876  0.4656593278157682 0.8117386892206443 0.1107192363849307  0.5612052063549927 0.8110680613103685 0.03299589717404138  0.5605886277894087 0.8112065676708091 0.1111857724331764  0.09362636608581182 0.9046055456694648 0.01951253294033144  0.08894648804495756 0.9045364023454798 0.09693073701188989  0 0.9166666666666666 0  0 0.9166666666666666 0.08333333333333333  0.1876173481379981 0.8972122205088506 0.02488978405369367  0.1839066443855891 0.8970667747947371 0.1029199867416504  0.2809103018092943 0.8932220089572269 0.028449971020161  0.2783823746629592 0.8931883055447113 0.1070597772478235  0.3742538682279913 0.8910570087448373 0.03064057007028428  0.3726333734738904 0.8910719410489071 0.10914160148991  0.467995367971988 0.8898730173019846 0.03193818129957392  0.4669326042559735 0.8898967116975032 0.1103311459580972  0.5621658395997059 0.8892618819361566 0.03270132557764976  0.5614889900967147 0.8892847280677181 0.1109477565083928  0.0976246391816292 0.982424924496744 0.01996486480445574  0.09185445663804155 0.9812167086356786 0.09731851087118629  0 1 0  0 1 0.08333333333333333  0.1916263127001713 0.975714125238806 0.02413638876620733  0.1881372152619053 0.97512341556996 0.1023989657358586  0.2834257945275698 0.9720676027502513 0.02818061765510031  0.280777932573812 0.971695156180869 0.1072165365027683  0.3759436269146372 0.9697731882516604 0.03045175373995009  0.3743183068782241 0.9695982787059254 0.1091737139700845  0.4690926416565953 0.9684104498984326 0.03181537202963908  0.4679933548852789 0.9682922852702734 0.1103889335581318  0.5628574580269876 0.9676045805812791 0.03262831553515265  0.562162234349
[...]
<PointData  Vectors="f_34"> 
<DataArray  type="Float64"  Name="f_34"  NumberOfComponents="3" format="ascii">0.0000000000000000e+00 0.0000000000000000e+00 0.0000000000000000e+00  -1.6691637548955952e-02 -2.0930431105191369e-02 -2.0930431105191487e-02  -1.1947558814892914e-02 -1.4609590837305998e-02 -2.2632345605572333e-02  -6.6570215985289598e-03 -1.5603090891520829e-02 -1.5603090891520897e-02  -1.1947558814892798e-02 -2.2632345605572306e-02 -1.4609590837306107e-02  0.0000000000000000e+00 0.0000000000000000e+00 0.0000000000000000e+00  0.0000000000000000e+00 0.0000000000000000e+00 0.0000000000000000e+00  0.0000000000000000e+00 0.0000000000000000e+00 0.0000000000000000e+00  -2.8736500643920668e-02 -2.8149860469354106e-02 -2.8149860469354276e-02  -2.4540333556293592e-02 -2.2767949735381925e-02 -2.8905957029952856e-02  -2.0079540340064830e-02 -2.2604334598433015e-02 -2.2604334598432928e-02  -2.4540333556293668e-02 -2.8905957029952700e-02 -2.2767949735381810e-02  -3.8822444814321254e-02 -3.2628776327651141e-02 -3.2628776327651272e-02  -3.5748993725602411e-02 -2.7459180417733455e-02 -3.3096627280418289e-02  -3.2688512667711035e-02 -2.7511696202272850e-02 -2.7511696202272878e-02  -3.5748993725602501e-02 -3.3096627280418373e-02 -2.7459180417733473e-02  -4.9392567548414257e-02 -3.5332588019963265e-02 -3.5332588019963466e-02  -4.7318656769659052e-02 -3.0036739887847268e-02 -3.5610965358960620e-02  -4.5358014361781773e-02 -2.9980620008002515e-02 -2.9980620008002636e-02  -4.7318656769658872e-02 -3.5610965358960793e-02 -3.0036739887847146e-02  -6.0646801531186019e-02 -3.6975521625163606e-02 -3.6975521625163738e-02  -5.9260404077114172e-02 -3.1448658172792673e-02 -3.7144765278424287e-02  -5.7962564029699772e-02 -3.1400034775391883e-02 -3.1400034775391931e-02  -5.9260404077114422e-02 -3.7144765278424231e-02 -3.1448658172792861e-02  -7.2592740418413848e-02 -3.7953376141972590e-02 -3.7953376141972632e-02  -7.1680279707104486e-02 -3.2190839120544268e-02 -3.8053814056309705e-02  -7.0843479037133478e-02 -3.2147301184702513e-02 -3.2147301184702333e-02  -7.1680279707104375e-02 -3.8053814056309782e-02 -3.2190839120544282e-02  -1.0405574012104906e-02 -1.0123015457159905e-02 -2.3960175479351486e-02  -4.9296956775178860e-03 -1.0042372304337693e-02 -1.6569451862553763e-02  0.0000000000000000e+00 0.0000000000000000e+00 0.0000000000000000e+00  0.0000000000000000e+00 0.0000000000000000e+00 0.0000000000000000e+00  -2.1997360941448271e-02 -1.7398490144075456e-02 -3.0443015212060151e-02  -1.7511058695666482e-02 -1.6983985601741445e-02 -2.3843687608175387e-02  -3.3190873960460644e-02 -2.1845644060122609e-02 -3.4351650867302470e-02  -3.0175552172840289e-02 -2.1509648664747395e-02 -2.8642033171008975e-02  -4.5217527952089921e-02 -2.4328943576148676e-02 -3.6498885102868056e-02  -4.3351626166254237e-02 -2.4008977547490526e-02 -3.0722581674501488e-02  -5.7648757830213983e-02 -2.5605753635595335e-02 -3.7741050222817506e-02  -5.6436302969884278e-02 -2.5362081795595189e-02 -3.1899585734017639e-02  -7.0496538676383544e-02 -2.6199242034820391e-02 -3.8438347200813121e-02  -6.9738310674895707e-02 -2.6021314253304815e-02 -3.2459103196735589e-02  -1.0010911368592114e-02 -7.0386065806723429e-03 -2.4860400160986312e-02  -4.4707616473899188e-03 -6.9143513012191495e-03 -1.7381657326317308e-02  0.0000000000000000e+00 0.0000000000000000e+00 0.0000000000000000e+00  0.0000000000000000e+00 0.0000000000000000e+00 0.0000000000000000e+00  -2.0670163309406232e-02 -1.2539528878090414e-02 -3.1799832383479533e-02  -1.6061921981627605e-02 -1.2130793274931663e-02 -2.5136000022393416e-02  -3.1462138766291836e-02 -1.6199511510091819e-02 -3.5661112760554621e-02  -2.8466862207905713e-02 -1.5760075031006356e-02 -2.9869093356842107e-02  -4.3503512934821340e-02 -1.8343691948368285e-02 -3.7551465010402872e-02  -4.1716142173662756e-02 -1.7941295834364320e-02 -3.1712278520011974e-02  -5.6169408783006247e-02 -1.9446692061114750e-02 -3.8507719056486485e-02  -5.5050914180491455e-02 -1.9123322400621777e-02 -3.2625365849423854e-02  -6.9314970638092221e-02 -1.9930122012871240e-02 -3.8962111835075232e-02  -6.8646059057389797e-02 -1.9691715158523734e-02 -3.2950445707186408e-02  -9.8721184139461855e-03 -4.5316742589292334e-03 -2.5455195292365587e-02  -4.1989448907512258e-03 -4.4237780058709727e-03 -1.7938123684781843e-02  0.0000000000000000e+00 0.0000000000000000e+00 0.0000000000000000e+00  0.0000000000000000e+00 0.0000000000000000e+00 0.0000000000000000e+00  -1.9993784261918519e-02 -8.1582672992287688e-03 -3.2777165394790329e-02  -1.5261165637841167e-02 -7.8288887397173785e-03 -2.6090303745350610e-02  -3.0398836342276862e-02 -1.0705669305890559e-02 -3.6697228856831070e-02  -2.7395713866516371e-02 -1.0345270664629473e-02 -3.0875153934001174e-02  -4.2298403820185640e-02 -1.2264802448766491e-02 -3.8450043932108977e-02  -4.0559308541669760e-02 -1.1923609057404574e-02 -3.2594878281648393e-02  -5.5033155871154517e-02 -1.3084935458762855e-02 -3.9200886311178386e-02  -5.3992041287051026e-02 -1.2802583645732644e-02 -3.3302897418777684e-02  -6.8347731757120486e-02 -1.3440548882899287e-02 -3.9455777031756727e-02  -6.7756300817404455e-02 -1.3228570172326915e-02 -3.3431183279347187e-02  -9.8209393919313614e-03 -2.3058501290432716e-03 -2.5797694933504724e-02  -4.0730409419717931e-03 -2.2681609528213027e-03 -1.8256757662692399e-02  0.0000000000000000e+00 0.0000000000000000e+00 0.0000000000000000e+00  0.0000000000000000e+00 0.0000000000000000e+00 0.0000000000000000e+00  -1.9670089369070380e-02 -4.0918821764747999e-03 -3.3356587518069108e-02  -1.4863601544600567e-02 -3.9158951171657007e-03 -2.6657181108575363e-02  -2.9824482765728650e-02 -5.3815666124622397e-03 -3.7341693182362801e-02  -2.6804479869533628e-02 -5.1891797955754921e-03 -3.1510685865900522e-02  -4.1594454229519504e-02 -6.1905299646075442e-03 -3.9033718952082380e-02  -3.9880967108480131e-02 -6.0030750815005651e-03 -3.3173350819481952e-02  -5.4330554087201610e-02 -6.6229608704126731e-03 -3.9667078544066911e-02  -5.3338108367008974e-02 -6.4650066229419503e-03 -3.3763086888433637e-02  -6.7723880566491951e-02 -6.8114980340528474e-03 -3.9796496485653199e-02  -6.7183593338614622e-02 -6.6909898200652245e-03 -3.3767395294686607e-02  -9.8002431464808484e-03 -1.9970835310015431e-04 -2.5921649714219459e-02  -4.0284464322150821e-03 -2.4679411199922364e-04 -1.8372702376626904e-02  0.0000000000000000e+00 0.0000000000000000e+00 0.0000000000000000e+00  0.0000000000000000e+00 0.0000000000000000e+00 0.0000000000000000e+00  -1.9560264063659932e-02 -1.7778088648451708e-04 -3.3556740621114287e-02  -1.4726508613539387e-02 -1.7480897448356479e-04 -2.6853506240884145e-02  -2.9631266613040042e-02 -1.5652539375998910e-04 -3.7563112116807656e-02  -2.6603220067248891e-02 -1.6484130789172643e-04 -3.1729807689856157e-02  -4.1355956464764074e-02 -1.3739027467123027e-04 -3.9234908002998350e-02  -3.9650190746096818e-02 -1.4347285846213266e-04 -3.3372616445306931e-02  -5.4089764372983490e-02 -1.2411891850342083e-04 -3.9828377801955694e-02  -5.3113267399683355e-02 -1.2908572720628730e-04 -3.3922423100682518e-02  -6.7507406463399436e-02 -1.1851266901810726e-04 -3.9914703861311046e-02  -6.6984390058775864e-02 -1.2240700329798777e-04 -3.3884127777458348e-02  -9.7923219301848455e-03 1.8919322248452271e-03 -2.5836374198279909e-02  -4.0488433895620657e-03 1.7590616217095251e-03 -1.8293680227543758e-02  0.0000000000000000e+00 0.0000000000000000e+00 0.0000000000000000e+00  0.0000000000000000e+00 0.0000000000000000e+00 0.0000000000000000e+00  -1.9624978390970448e-02 3.7302748442089302e-03 -3.3384786782291828e-02  -1.4816820656943348e-02 3.5593438114309454e-03 -2.6681732699259525e-02  -2.9785724593890534e-02 5.0682114055914393e-03 -3.7354125122835619e-02  -2.6765564398640616e-02 4.8584595566706617e-03 -3.1520442940362908e-02  -4.1568850081488758e-02 5.9160226123011741e-03 -3.9034295721730380e-02  -3.9854961047808772e-02 5.7175859429987007e-03 -3.3171390109123344e-02  -5.4317925626605458e-02 6.3747429388558517e-03 -3.9660886758719614e-02  -5.3324797812657421e-02 6.2077854421174394e-03 -3.3754891149636819e-02  -6.7717827778655426e-02 6.5729299634888563e-03 -3.9788402944836453e-02  -6.7176254000780200e-02 6.4456445918735098e-03 -3.3758093595430201e-02  -9.8058596325679443e-03 4.0802170931890499e-03 -2.5533779166336094e-02  -4.1445385107656005e-03 3.8670433996341015e-03 -1.8011411272674974e-02  0.0000000000000000e+00 0.0000000000000000e+00 0.0000000000000000e+00  0.0000000000000000e+00 0.0000000000000000e+00 0.0000000000000000e+00  -1.9897690231997410e-02 7.7850708363103992e-03 -3.2829965106541292e-02  -1.5162331588471018e-02 7.4592323354618221e-03 -2.6135508991889860e-02  -3.0325418264231369e-02 1.0388854762073258e-02 -3.6716953951437203e-02  -2.7324239302174133e-02 1.0016358696908341e-02 -3.0888325621696352e-02  -4.2254713424698095e-02 1.1993571016777302e-02 -3.8445643624969120e-02  -4.0513024906897691e-02 1.1644507054026124e-02 -3.2588188953564537e-02  -5.5012664749922162e-02 1.2834601581433356e-02 -3.9186882660378723e-02  -5.3971341387756437e-02 1.2547422748554384e-02 -3.3285247452636176e-02  -6.8338234071565945e-02 1.3196940682692141e-02 -3.9439526543077835e-02  -6.7744482021628485e-02 1.2981186956125252e-02 -3.3413542327537495e-02  -9.9082072494294342e-03 6.5316030005002808e-03 -2.4985406238996730e-02  -4.3552091880672533e-03 6.2530194101187587e-03 -1.7499948529811592e-02  0.0000000000000000e+00 0.0000000000000000e+00 0.0000000000000000e+00  0.0000000000000000e+00 0.0000000000000000e+00 0.0000000000000000e+00  -2.0510490692537523e-02 1.2113093175259777e-02 -3.1877862143391313e-02  -1.5882861437013000e-02 1.1730708879454446e-02 -2.5204017545684021e-02  -3.1378153742183612e-02 1.5894935362030512e-02 -3.5667570108911459e-02  -2.8386074961010810e-02 1.5447723404244228e-02 -2.9870970582414169e-02  -4.3452888026931584e-02 1.8069069120401092e-02 -3.7537287686190836e-02  -4.1662149565015225e-02 1.7668084556509471e-02 -3.1700176292593640e-02  -5.6151783184120903e-02 1.9190519012430431e-02 -3.8483051359505575e-02  -5.5033546279100516e-02 1.8868487136751499e-02 -3.2599545878841708e-02  -6.9304060861420935e-02 1.9675468553727586e-02 -3.8939826290428678e-02  -6.8633319455914193e-02 1.9438771517744511e-02 -3.2927801375376341e-02  -1.0210010478514562e-02 9.2900477006289030e-03 -2.4181569405972103e-02  -4.8432067889819788e-03 9.1773248528454997e-03 -1.6731264572829235e-02  0.0000000000000000e+00 0.0000000000000000e+00 0.0000000000000000e+00  0.0000000000000000e+00 0.0000000000000000e+00 0.0000000000000000e+00  -2.1816300673645827e-02 1.7052599653580598e-02 -3.0432716980536755e-02  -1.7282945962963144e-02 1.6741066695280651e-02 -2.3908643747736196e-02  -3.3097369664769415e-02 2.1550125456007811e-02 -3.4337337281056597e-02  -3.0112625529747476e-02 2.1203542436197223e-02 -2.8621125780194705e-02  -4.5202875996697450e-02 2.4061246455457191e-02 -3.6459017161305007e-02  -4.3336958860315654e-02 2.3755433429240719e-02 -3.0690457060123414e-02  -5.7637392029028130e-02 2.5337279074213029e-02 -3.7710839920880410e-02  -5.6427410416280098e-02 2.5096339410421359e-02 -3.1875189587130710e-02  -7.0484909994494957e-02 2.5930551826030924e-02 -3.8414430995359822e-02  -6.9727885611291132e-02 2.5756731994223236e-02 -3.2437977256595737e-02  -1.1863648110376322e-02 1.3674585136118470e-02 -2.2466414905796452e-02  -6.4977519817470339e-03 1.3914088079659610e-02 -1.5668466698030903e-02  0.0000000000000000e+00 0.0000000000000000e+00 0.0000000000000000e+00  0.0000000000000000e+00 0.0000000000000000e+00 0.0000000000000000e+00  -2.4364164279067260e-02 2.2447848459351549e-02 -2.8888095834110811e-02  -1.9873906753893077e-02 2.2645655282951444e-02 -2.2639711274592876e-02  -3.5838663876312959e-02 2.7148527247433215e-02 -3.3015609688798041e-02  -3.2809720715057417e-02 2.7204356145938087e-02 -2.7517876932490023e-02  -4.7337581411126803e-02 2.9723291165549802e-02 -3.5586598661487175e-02  -4.5382089927276832e-02 2.9710376306458945e-02 -2.9964884505877885e-02  -5.9263443743695098e-02 3.1150066453165936e-02 -3.7124707354718407e-02  -5.7965945288004812e-02 3.1121920989474097e-02 -3.1388900364925205e-02  -7.1661129598508677e-02 3.1898810058503937e-02 -3.8042672585706337e-02  -7.0824819295377539e-02 3.1869665996132467e-02 -3.2137543903448078e-02  -1.6420712738117266e-02 2.0003547433633456e-02 -2.2817792631498791e-02  -9.8587099535654421e-03 2.1768062233499162e-02 -1.6044189871559054e-02  0.0000000000000000e+00 0.0000000000000000e+00 0.0000000000000000e+00  0.0000000000000000e+00 0.0000000000000000e+00 0.0000000000000000e+00  -2.9385389245007484e-02 2.8087498558382998e-02 -2.7931496847409566e-02  -2.4916180820136656e-02 2.8828060843206216e-02 -2.1951731176817587e-02  -3.8835834759457968e-02 3.2342050387558649e-02 -3.2684055298580053e-02  -3.5675632841971318e-02 3.2834802992274821e-02 -2.7720328502300318e-02  -4.9412847148891555e-02 3.5082766370632235e-02 -3.5344853577877457e-02  -4.7444714147757520e-02 3.5299328689853075e-02 -2.9993560989081684e-02  -6.0614867116627329e-02 3.6707904408602228e-02 -3.6969045964463917e-02  -5.9264573649825909e-02 3.6856880490293065e-02 -3.1458514930515956e-02  -7.2525819022207380e-02 3.7683543405706878e-02 -3.7948443709136748e-02  -7.1662925866999461e-02 3.7765142354245995e-02 -3.2190731166214827e-02  -4.9296956775178799e-03 -1.6569451862553888e-02 -1.0042372304337629e-02  -1.0405574012105021e-02 -2.3960175479351430e-02 -1.0123015457160173e-02  0.0000000000000000e+00 0.0000000000000000e+00 0.0000000000000000e+00  0.0000000000000000e+00 0.0000000000000000e+00 0.0000000000000000e+00  -1.7511058695666583e-02 -2.3843687608175367e-02 -1.6983985601741514e-02  -2.1997360941448146e-02 -3.0443015212060182e-02 -1.7398490144075771e-02  -3.0175552172840184e-02 -2.8642033171008805e-02 -2.1509648664747517e-02  -3.3190873960460755e-02 -3.4351650867302484e-02 -2.1845644060122838e-02  -4.3351626166254278e-02 -3.0722581674501290e-02 -2.4008977547490516e-02  -4.5217527952089907e-02 -3.6498885102868153e-02 -2.4328943576148992e-02  -5.6436302969884292e-02 -3.1899585734017570e-02 -2.5362081795595195e-02  -5.7648757830214274e-02 -3.7741050222817492e-02 -2.5605753635595335e-02  -6.9738310674895804e-02 -3.2459103196735672e-02 -2.6021314253304902e-02  -7.0496538676383280e-02 -3.8438347200813253e-02 -2.6199242034820266e-02  -3.4845691433958710e-03 -1.0618664660389973e-02 -1.0618664660390074e-02  0.0000000000000000e+00 0.0000000000000000e+00 0.0000000000000000e+00  -1.4938304759830741e-02 -1.7745765969250860e-02 -1.7745765969250947e-02  -2.7583534588900744e-02 -2.2279210576300799e-02 -2.2279210576300869e-02  -4.1282226385364010e-02 -2.4540188827463224e-02 -2.4540188827463068e-02  -5.4888086404164246e-02 -2.5731970529359098e-02 -2.5731970529359022e-02  -6.8642624083070106e-02 -2.6250497348872796e-02 -2.6250497348872616e-02  -3.1051165474488608e-03 -7.2025344015763503e-03 -1.1354855147053216e-02  0.0000000000000000e+00 0.0000000000000000e+00 0.0000000000000000e+00  -1.3436133935965738e-02 -1.2585410244595781e-02 -1.8726623152917520e-02  -2.5804069759333664e-02 -1.6210264903063657e-02 -2.3220337458688043e-02  -3.9568911859881852e-02 -1.8280197188941888e-02 -2.5324141906242825e-02  -5.3461826788336879e-02 -1.9360295067039460e-02 -2.6324334136892159e-02  -6.7537391812299841e-02 -1.9840370375687470e-02 -2.6655585352306759e-02  -2.8533707174328909e-03 -4.5368109691329688e-03 -1.1897856803307197e-02  0.0000000000000000e+00 0.0000000000000000e+00 0.0000000000000000e+00  -1.2631602486173451e-02 -8.0373148491104125e-03 -1.9517328569410984e-02  -2.4703742803024356e-02 -1.0578682577338492e-02 -2.4046996901822271e-02  -3.8362918059115937e-02 -1.2109891042676117e-02 -2.6059325271218691e-02  -5.2372422312392392e-02 -1.2935016894295978e-02 -2.6895365076840858e-02  -6.6632930540053925e-02 -1.3313140946418320e-02 -2.7064162110843604e-02  -2.7411920574064970e-03 -2.3052408241270232e-03 -1.2226285879308478e-02  0.0000000000000000e+00 0.0000000000000000e+00 0.0000000000000000e+00  -1.2243647274503456e-02 -4.0027816406231860e-03 -2.0013874183282064e-02  -2.4096555940590691e-02 -5.2965205855991290e-03 -2.4586067769205425e-02  -3.7659945592545881e-02 -6.0891410349718815e-03 -2.6550390794566267e-02  -5.1701244723082983e-02 -6.5285536030834307e-03 -2.7288747978453900e-02  -6.6050553713240465e-02 -6.7322334036650335e-03 -2.7353494367892407e-02  -2.7015091241312204e-03 -2.4413025004395297e-04 -1.2347559792918093e-02  0.0000000000000000e+00 0.0000000000000000e+00 0.0000000000000000e+00  -1.2110159945960491e-02 -1.8308164310030210e-04 -2.0186748707773174e-02  -2.3891004410397331e-02 -1.8632363072371955e-04 -2.4770996255377660e-02  -3.7421802199038505e-02 -1.6044114678820411e-04 -2.6718232383495546e-02  -5.1469455197359536e-02 -1.4398661417555032e-04 -2.7423771898044319e-02  -6.5846647354662294e-02 -1.3331686214285463e-04 -2.7452783299409519e-02  -2.7218099735356635e-03 1.7981064636005070e-03 -1.2266987837551886e-02  0.0000000000000000e+00 0.0000000000000000e+00 0.0000000000000000e+00  -1.2204699812444922e-02 3.6259232416567455e-03 -2.0029519301134096e-02  -2.4060290175985918e-02 4.9209452933607258e-03 -2.4583959485035722e-02  -3.7632046125435054e-02 5.7703991067193866e-03 -2.6538846034855283e-02  -5.1683357425833236e-02 6.2432141619193872e-03 -2.7274139656322048e-02  -6.6038236110980295e-02 6.4669338314644617e-03 -2.7339813030956790e-02  -2.8091022294882508e-03 3.9732758195307472e-03 -1.1979798630443824e-02  0.0000000000000000e+00 0.0000000000000000e+00 0.0000000000000000e+00  -1.2553360874263437e-02 7.6495861382695918e-03 -1.9543948765796269e-02  -2.4636075483133860e-02 1.0207803744086566e-02 -2.4037482443760978e-02  -3.8309608340439227e-02 1.1802397699757734e-02 -2.6034117243240271e-02  -5.2343354603039328e-02 1.2659205272166910e-02 -2.6865450620020267e-02  -6.6611515328779097e-02 1.3052405634699388e-02 -2.7038658111143248e-02  -3.0027355464773940e-03 6.5168398507129558e-03 -1.1480368911988564e-02  0.0000000000000000e+00 0.0000000000000000e+00 0.0000000000000000e+00  -1.3273291829584945e-02 1.2143496790348140e-02 -1.8751479079785846e-02  -2.5730541310933070e-02 1.5851794925105290e-02 -2.3191346724724005e-02  -3.9499795961956394e-02 1.7994535376075014e-02 -2.5287627776443281e-02  -5.3432904559124778e-02 1.9096765360512503e-02 -2.6283956647083034e-02  -6.7512725640523116e-02 1.9586159227079285e-02 -2.6623426349768820e-02  -3.4254763333951507e-03 9.7012835287103461e-03 -1.0782354413486914e-02  0.0000000000000000e+00 0.0000000000000000e+00 0.0000000000000000e+00  -1.4660841408333068e-02 1.7527263016496427e-02 -1.7760783637161798e-02  -2.7524742474488082e-02 2.1944444296071966e-02 -2.2217839659202997e-02  -4.1238700623037777e-02 2.4314290162669810e-02 -2.4487991533474106e-02  -5.4868363541008575e-02 2.5478913031457797e-02 -2.5696593167743319e-02  -6.8623370586102059e-02 2.6001418116186534e-02 -2.6223261907481202e-02  -4.8942678857464899e-03 1.4977123960229008e-02 -1.0106567726998979e-02  0.0000000000000000e+00 0.0000000000000000e+00 0.0000000000000000e+00  -1.7299319052097657e-02 2.3959901756436572e-02 -1.6954789431297503e-02  -3.0327304236468684e-02 2.8310466654357342e-02 -2.1527068819614983e-02  -4.3363479958690596e-02 3.0507893317014628e-02 -2.3992855320194528e-02  -5.6439510251167418e-02 3.1652949266343794e-02 -2.5365086728550056e-02  -6.9721136246435847e-02 3.2205507846489664e-02 -2.6019963198877633e-02  -8.2218798695902606e-03 2.3046706394825922e-02 -1.0194950468978827e-02  0.0000000000000000e+00 0.0000000000000000e+00 0.0000000000000000e+00  -2.2537524106997275e-02 3.0572073219188204e-02 -1.7100896948702732e-02  -3.3188666550414116e-02 3.4224328873003008e-02 -2.1967268589383384e-02  -4.5354826630805832e-02 3.6263280408644842e-02 -2.4312648792704970e-02  -5.7632655074019171e-02 3.7507342500822341e-02 -2.5647453085561139e-02  -7.0483199645463096e-02 3.8177720145688529e-02 -2.6216609410891035e-02  -4.4707616473898737e-03 -1.7381657326317280e-02 -6.9143513012192535e-03  -1.0010911368592111e-02 -2.4860400160986416e-02 -7.0386065806721651e-03  0.0000000000000000e+00 0.0000000000000000e