<?xml version="1.0"?>
<VTKFile type="UnstructuredGrid"  version="0.1"  >
<UnstructuredGrid>
<Piece  NumberOfPoints="2197" NumberOfCells="10368">
<Points>
<DataArray  type="Float64"  NumberOfComponents="3"  format="ascii">0 0 0  0.09770292879342705 0.01818991590844139 0.01818991590844138  0.1911173098647065 0.02422040584319801 0.02422040584319799  0.2836736319483085 0.02791705346990152 0.02791705346990155  0.3765350524376943 0.03017473046690291 0.03017473046690291  0.46994441823278 0.0315378581137858 0.03153785811378578  0.5639283207267916 0.03234345516087624 0.03234345516087626  0.6584243769915205 0.03280726023106361 0.03280726023106365  0.7533417227309884 0.03307128686390624 0.03307128686390619  0.8485897187323799 0.03322975030024879 0.03322975030024878  0.9440841645541588 0.03334745154347467 0.03334745154347471  1.039762573413538 0.03346685326747786 0.03346685326747788  1.135527475457335 0.03359769954391466 0.03359769954391465  0 0.08333333333333333 0  0.09353858672445875 0.0959237454097044 0.01935321620930679  0.1876439544266017 0.1028333946382951 0.02471392932179275  0.2812227928650641 0.1067435354088139 0.02824847757860762  0.3748674462124129 0.1089198812445312 0.03038509333005397  0.468834916911034 0.1101056330447713 0.03166809150123314  0.5632030810569756 0.1107249265913233 0.03242228102182955  0.6579535235765972 0.1110237035340887 0.03285238812118885  0.7530305103953761 0.1111530074815912 0.03309431847752949  0.8483701349339545 0.1112065148934447 0.03323825361954742  0.9439119828696469 0.1112457600650052 0.03334702003237643  1.039606437811697 0.1113088909750174 0.03346377966159823  1.135376745594878 0.1114312461396043 0.03359585122997554  0 0.1666666666666667 0  0.0925222660915976 0.1754602817527599 0.02034375414648487  0.1856155381803953 0.1815458219633756 0.02589647754327824  0.279179830497865 0.185297268403317 0.02921193701615166  0.3731820499168933 0.1873763070449241 0.03106809449460108  0.4675514944962433 0.188442304867184 0.03212504304834291  0.5622647758912875 0.1889364457699295 0.03271632329621109  0.6572814253566116 0.1891220574757969 0.0330318807937909  0.7525489195853948 0.1891570275545045 0.03319473467750784  0.8480152368095639 0.1891348244586082 0.03328403899610339  0.9436344569973921 0.1891137797281873 0.03335487992939531  1.039368014454527 0.1891330215285638 0.03344285611965324  1.135157987667932 0.1892527253436901 0.0335540677733648  0 0.25 0  0.09221696591153793 0.2561330909545403 0.02103670509262065  0.1845542267248287 0.260720825673052 0.0269694441639092  0.2777581888067283 0.2638208869067856 0.03023462338529798  0.3717865346928205 0.2656172656575946 0.03188383459960341  0.4663600756293609 0.2665366086775291 0.0327164409704158  0.5613205598064798 0.2669367206937672 0.0331177363794217  0.6565626999016672 0.2670568553354205 0.03328748687935044  0.7520094236804296 0.2670444318395737 0.03334374840718405  0.847604228619015 0.2669861828650819 0.03335592598553544  0.9433061420468838 0.2669348130575739 0.03336928074519153  1.039083090295305 0.2669304023976911 0.0334091685939798  1.134897532078872 0.2670394092932553 0.03348188394689073  0 0.3333333333333333 0  0.09209868726782433 0.3372993869119734 0.0215077103788753  0.1840094240137101 0.340319420466343 0.02774452566907035  0.2768759395775973 0.3424777222902661 0.03104831737221513  0.3707995581185433 0.3437860758280402 0.03258407568746255  0.4654376868253183 0.3444694890847296 0.03325383517243156  0.5605420738426444 0.344762878982039 0.03349801625050169  0.6559426736082855 0.3448410385058109 0.03353767728216036  0.7515280092052847 0.3448170365952768 0.03349375430453813  0.8472278489997007 0.3447587800488513 0.0334304540716862  0.94299925211486 0.3447071768893441 0.03338516292674293  1.038814104060739 0.3446973142877011 0.0333747456338673  1.134652057894558 0.344781611025378 0.0334071977646135  0 0.4166666666666667 0  0.0920517676445502 0.4187014030681541 0.0217857857227192  0.1837453074392046 0.420188630653092 0.02820319987266802  0.2763991598364075 0.4212813752749082 0.03155723506093502  0.3702199422243366 0.4219615577745021 0.03304227986189203  0.464863082719386 0.4223229535039505 0.0336174682338224  0.5600361153265485 0.4224786428842057 0.03376204288367367  0.6555269611466207 0.4225185993248452 0.03371493894517976  0.7511974753018341 0.4225032991117976 0.03360176536824295  0.8469645200483898 0.4224699772412486 0.03348483518291102  0.9427812284918154 0.422440583251964 0.03339677541053557  1.038621915700106 0.4224373327576152 0.03334956142222056  1.134476456087543 0.4224832800750118 0.03335229056881126  0 0.5 0  0.09203258784296782 0.5002122298780977 0.02188836330295989  0.1836566429840965 0.5001890091870007 0.02836083962492573  0.2762401046442671 0.5001710806942072 0.03173354688434932  0.370022295463066 0.5001568473769598 0.03320293995270993  0.4646627601813529 0.5001477314943404 0.03374593995332524  0.5598564521116397 0.5001434865102835 0.03385576240847234  0.6553770015769521 0.5001427040453431 0.03377798855691604  0.7510764326311549 0.50014436155368 0.03364007759279789  0.8468666626729922 0.5001481105010671 0.03350382695490834  0.9426989561306497 0.5001524997168221 0.03340010086285587  1.038549362351016 0.5001611846802364 0.03333980667932823  1.134409411124926 0.5001611282110697 0.03333117269533369  0 0.5833333333333334 0  0.09202962737132797 0.5817373538400192 0.02182173492383518  0.183716121281881 0.5801947349415596 0.028224120655923  0.2763715561881175 0.5790631760019653 0.03157235669049224  0.3701954635266133 0.5783535041720499 0.03305093020679377  0.4648426365878755 0.577973253758681 0.03362050431240351  0.5600195322160901 0.5778087552550694 0.03376179598044764  0.655513125255905 0.5777670797936157 0.03371317132440661  0.7511850564306806 0.5777855989980987 0.03359939486782287  0.8469527532199246 0.5778261601245032 0.03348231379204588  0.9427692017995288 0.5778642517877481 0.03339390559885322  1.038611724127633 0.5778838584707544 0.03334765406183864  1.1344648060289 0.5778390421210102 0.03334882699300611  0 0.6666666666666666 0  0.09205061412250234 0.6631848034989613 0.02158146258699735  0.1839522432739734 0.6600796351001572 0.02778867729126948  0.276821219322102 0.6578737885639807 0.0310788948047102  0.3707514469622225 0.6565323124968662 0.03259971817967879  0.4653985053771745 0.6558281386999338 0.03325845587356928  0.5605109441706317 0.6555252499717859 0.03349680757415361  0.6559167145638138 0.6554451666047652 0.03353405847601769  0.7515043699448063 0.6554722968135871 0.03348928825939108  0.8472049873937766 0.6555371692034276 0.03342581087892997  0.9429754799489185 0.6555972846059953 0.03337995407117109  1.038793454891989 0.6556206108857524 0.03337117779171617  1.134628806479911 0.6555411641553811 0.03340095863725988  0 0.75 0  0.09215447953351516 0.7444171279777958 0.02115026410248787  0.1844767149663649 0.7397033529667519 0.02704690738476349  0.2776769722576111 0.7365410220445112 0.03027838970019095  0.3717177232132592 0.7347035967101552 0.0319022649251396  0.4663070084810027 0.7337607543940345 0.03271969342175716  0.5612793210035475 0.7333510878419709 0.0331146271752701  0.6565276764776907 0.7332296137335756 0.03328219123914652  0.7519762156376467 0.7332455642098317 0.03333799774624359  0.8475707148391995 0.7333098159599005 0.03335023075915995  0.9432705303622644 0.7333695138151257 0.03336306891686831  1.039050893712489 0.733383004900431 0.03340441712210894  1.134862305146925 0.7332848176012505 0.03347398975725033  0 0.8333333333333334 0  0.0924654292022714 0.8252267108177577 0.02052770049519836  0.1854929977919805 0.8189152256663715 0.02600339500320025  0.2790574856706503 0.8150600370173087 0.02926678037678155  0.3730982664929874 0.8129357156056906 0.03108061188632407  0.467494556099883 0.8118472272635603 0.03212311009764811  0.5622211153787326 0.8113475752811858 0.03270990337696308  0.6572415354226236 0.8111637050509823 0.03302495675276682  0.7525079570287044 0.8111337518323863 0.03318852196413366  0.8479716009295523 0.8111619759663741 0.03327845456710854  0.943587415752302 0.8111914060520612 0.03334908494781373  1.039321736567603 0.8111763758078466 0.03343711005385513  1.135108751839153 0.8110743738609389 0.03354581594628666  0 0.9166666666666666 0  0.09349249750979857 0.9049888333840651 0.01939889324286376  0.1875269066380832 0.8975904793668639 0.02484123198382892  0.2811510713670922 0.8935868527771622 0.02825086437368544  0.37482803293168 0.8913790287690904 0.03037348870771929  0.4688041200288403 0.8901812435111411 0.03165235757926006  0.5631676842558877 0.8895620764576518 0.03241157796264235  0.6579097291611162 0.8892668123137654 0.03284652880101262  0.7529788623373346 0.8891421880766299 0.03309163325999991  0.8483121704236711 0.88909365299473 0.03323716204035841  0.9438494556158938 0.8890614858981075 0.03334581005919773  1.039539391015621 0.8889994579593893 0.0334594320424565  1.135310658695344 0.8888969021988202 0.03359007307501649  0 1 0  0.09720125860785304 0.982745381181807 0.02007101029698757  0.190967483783954 0.9760936811057443 0.02412706187401815  0.2836190756651958 0.9723298222081568 0.02789820614379854  0.3764894233701153 0.9700756235153843 0.03014507180051655  0.4698893607330639 0.9687240310453546 0.03150594245047963  0.5638589080857673 0.9679301841624857 0.032324350068312  0.6583447316508858 0.9674757848469051 0.03279632293796163  0.7532564039888526 0.9672197125799673 0.03306542115994415  0.8485018194594646 0.967068355312645 0.03322664508549645  0.9439992343225592 0.966958542987323 0.03334494325334308  1.039671259787111 0.9668449514966546 0.03346268453266277  1.135439245909672 0.9667256185167724 0.03359595192837433  0 0 0.08333333333333333  0.09353858672445878 0.01935321620930681 0.09592374540970441  0.1876439544266017 0.02471392932179279 0.1028333946382951  0.2812227928650641 0.02824847757860761 0.1067435354088139  0.374867446212413 0.03038509333005398 0.1089198812445312  0.4688349169110341 0.03166809150123315 0.1101056330447713  0.5632030810569755 0.03242228102182951 0.1107249265913232  0.6579535235765971 0
[...]
<PointData  Vectors="f_32"> 
<DataArray  type="Float64"  Name="f_32"  NumberOfComponents="3" format="ascii">0.0000000000000000e+00 0.0000000000000000e+00 0.0000000000000000e+00  -1.6295659921672610e-02 -2.0853145626751484e-02 -2.0853145626751515e-02  -2.8193254377556373e-02 -2.7885611524235913e-02 -2.7885611524235854e-02  -3.8788512746360471e-02 -3.2159307019906019e-02 -3.2159307019906005e-02  -4.9664553983759706e-02 -3.4793824007985419e-02 -3.4793824007985433e-02  -6.1127945550123172e-02 -3.6400919594579875e-02 -3.6400919594579820e-02  -7.3224638464250896e-02 -3.7363554469199582e-02 -3.7363554469199624e-02  -8.5895880660512625e-02 -3.7927358771758311e-02 -3.7927358771758339e-02  -9.9046112296128336e-02 -3.8254904172503136e-02 -3.8254904172503212e-02  -1.1257642331514982e-01 -3.8454906015014674e-02 -3.8454906015014750e-02  -1.2639370933470465e-01 -3.8602671800748438e-02 -3.8602671800748486e-02  -1.4042706999692792e-01 -3.8748425987261234e-02 -3.8748425987261310e-02  -1.5456409696560872e-01 -3.8908614566935680e-02 -3.8908614566935798e-02  0.0000000000000000e+00 0.0000000000000000e+00 0.0000000000000000e+00  -1.1609113347569996e-02 -1.4340208161972831e-02 -2.2254839471743487e-02  -2.4125242713961447e-02 -2.2404621363116269e-02 -2.8512574199976933e-02  -3.5879241349096265e-02 -2.6946196180628594e-02 -3.2568385392528924e-02  -4.7665474473913928e-02 -2.9502244126194791e-02 -3.5053101314563719e-02  -5.9782048062983976e-02 -3.0911617009777501e-02 -3.6562158515178120e-02  -7.2332617418055870e-02 -3.1661478308601200e-02 -3.7461983860652304e-02  -8.5308092633931770e-02 -3.2033645672312802e-02 -3.7984523639353451e-02  -9.8652250868754676e-02 -3.2202507809084166e-02 -3.8284854514856359e-02  -1.1229643739436845e-01 -3.2277350141528237e-02 -3.8466805243474650e-02  -1.2617394552204148e-01 -3.2330365147757598e-02 -3.8603191414560284e-02  -1.4022810138974762e-01 -3.2408065230613688e-02 -3.8744607132051551e-02  -1.5437220223525419e-01 -3.2555489583583605e-02 -3.8903251299541343e-02  0.0000000000000000e+00 0.0000000000000000e+00 0.0000000000000000e+00  -1.0506146902523128e-02 -1.0025013203129098e-02 -2.3434421986748381e-02  -2.1796363371811418e-02 -1.7071459960276997e-02 -2.9940154234422211e-02  -3.3490836378987858e-02 -2.1421717997610532e-02 -3.3738095723383564e-02  -4.5672688066462692e-02 -2.3870484113924693e-02 -3.5886621328595769e-02  -5.8248869106566251e-02 -2.5146466009504952e-02 -3.7122682378761908e-02  -7.1199368233042806e-02 -2.5753615831409289e-02 -3.7825682046037257e-02  -8.4487211942643817e-02 -2.5994504760666403e-02 -3.8209257368564578e-02  -9.8058010104354928e-02 -2.6052420059126957e-02 -3.8413013550939533e-02  -1.1185539431169850e-01 -2.6037334095480577e-02 -3.8527719416621642e-02  -1.2582819785460755e-01 -2.6018528639461178e-02 -3.8616748091112589e-02  -1.3993191352755019e-01 -2.6044205162077880e-02 -3.8721088282858536e-02  -1.5410189006322064e-01 -2.6186252298371647e-02 -3.8850258361643832e-02  0.0000000000000000e+00 0.0000000000000000e+00 0.0000000000000000e+00  -1.0175815098179169e-02 -6.9911827596988814e-03 -2.4258987314102056e-02  -2.0601194847059405e-02 -1.2297013602993451e-02 -3.1223210199292278e-02  -3.1855288497066259e-02 -1.5880581031935334e-02 -3.4971928314142101e-02  -4.4042956618377267e-02 -1.7994104063078629e-02 -3.6877715529580718e-02  -5.6839902908702375e-02 -1.9097524976754501e-02 -3.7846490925415831e-02  -7.0069614391892118e-02 -1.9593925101215444e-02 -3.8321377796627323e-02  -8.3617676966187729e-02 -1.9757048873346780e-02 -3.8528585284319371e-02  -9.7398982892532723e-02 -1.9758144503756004e-02 -3.8602479294280220e-02  -1.1135017772856172e-01 -1.9699708185591618e-02 -3.8622603667595588e-02  -1.2542445827904875e-01 -1.9644910048173279e-02 -3.8640678963041721e-02  -1.3958421082060690e-01 -1.9642885292748775e-02 -3.8685374077308085e-02  -1.5378749597935110e-01 -1.9770703033002452e-02 -3.8765193261878328e-02  0.0000000000000000e+00 0.0000000000000000e+00 0.0000000000000000e+00  -1.0050245021365234e-02 -4.5235203120566657e-03 -2.4817109810794567e-02  -1.9991923620006360e-02 -8.0166463511103792e-03 -3.2146090751701085e-02  -3.0847689014311522e-02 -1.0506309058153768e-02 -3.5950208176960555e-02  -4.2897832790402456e-02 -1.2043555672167732e-02 -3.7726246670528242e-02  -5.5755278602327395e-02 -1.2864019720388697e-02 -3.8503028412071837e-02  -6.9142931756035197e-02 -1.3229463488902481e-02 -3.8790283156456405e-02  -8.2871223678126313e-02 -1.3338736686172617e-02 -3.8840663206896275e-02  -9.6813885317391171e-02 -1.3322937533097498e-02 -3.8792832683355573e-02  -1.1089023028269100e-01 -1.3262406491035871e-02 -3.8720718865577312e-02  -1.2505004282485682e-01 -1.3206479157547944e-02 -3.8666981594620592e-02  -1.3925960915056815e-01 -1.3197687243661068e-02 -3.8650331534916101e-02  -1.5349574265930474e-01 -1.3296010107008123e-02 -3.8680382550512669e-02  0.0000000000000000e+00 0.0000000000000000e+00 0.0000000000000000e+00  -1.0001157312248076e-02 -2.3253385378132836e-03 -2.5144687095997435e-02  -1.9697900525506150e-02 -4.0478812210112255e-03 -3.2691150861695606e-02  -3.0305385830093710e-02 -5.3087780219513549e-03 -3.6560623564866147e-02  -4.2227783280673781e-02 -6.1085725682365893e-03 -3.8280640132992309e-02  -5.5081649497315484e-02 -6.5428428134445566e-03 -3.8946880885492439e-02  -6.8542140634102300e-02 -6.7370986995461948e-03 -3.9115620034509774e-02  -8.2371804187198486e-02 -6.7935186308891189e-03 -3.9061605248580225e-02  -9.6413002456152613e-02 -6.7822489356981173e-03 -3.8929751086691083e-02  -1.1056924882445317e-01 -6.7474078769814844e-03 -3.8792217985226814e-02  -1.2478504667864761e-01 -6.7156944799299824e-03 -3.8686333327348027e-02  -1.3902893439705760e-01 -6.7136296266260449e-03 -3.8625138811974130e-02  -1.5328864740070677e-01 -6.7676301507434014e-03 -3.8619155483857692e-02  0.0000000000000000e+00 0.0000000000000000e+00 0.0000000000000000e+00  -9.9798932550977729e-03 -2.5180315728443964e-04 -2.5264611329602647e-02  -1.9598507234205403e-02 -2.3056861235801261e-04 -3.2879097979817480e-02  -3.0123606245360167e-02 -2.1417692182227341e-04 -3.6772733475474148e-02  -4.1998327595977873e-02 -2.0100658562724602e-04 -3.8475688140265939e-02  -5.4845740969751297e-02 -1.9154789635554337e-04 -3.9104261052248998e-02  -6.8327751135909234e-02 -1.8651802377013299e-04 -3.9231463827974898e-02  -8.2190706278468945e-02 -1.8505770509691862e-04 -3.9140332936186455e-02  -9.6265415558950240e-02 -1.8646054778351283e-04 -3.8978290380952942e-02  -1.1044933370270375e-01 -1.9052739661825537e-04 -3.8817069711147706e-02  -1.2468456011221783e-01 -1.9586678111432087e-04 -3.8692023890720142e-02  -1.3894141685262179e-01 -2.0638269504619200e-04 -3.8614892142663920e-02  -1.5320935305910252e-01 -2.0771298568597851e-04 -3.8595376492802008e-02  0.0000000000000000e+00 0.0000000000000000e+00 0.0000000000000000e+00  -9.9734216584087682e-03 1.8043813339027283e-03 -2.5184757542327817e-02  -1.9662430887252034e-02 3.5794932103594161e-03 -3.2718396287159848e-02  -3.0270163751427773e-02 4.8766223033232048e-03 -3.6581530423671196e-02  -4.2194942127943107e-02 5.7042562762585737e-03 -3.8293875609083469e-02  -5.5052917193848798e-02 6.1585287149269327e-03 -3.8952807544197859e-02  -6.8518018221817703e-02 6.3635208414904920e-03 -3.9116669706976824e-02  -8.2351379535210614e-02 6.4232071681515623e-03 -3.9059931526122110e-02  -9.6394816648963724e-02 6.4092916765577448e-03 -3.8926672791475388e-02  -1.1055229829512205e-01 6.3665714004276820e-03 -3.8788478327072537e-02  -1.2476820018878283e-01 6.3242536633778476e-03 -3.8681844978301037e-02  -1.3901451893779604e-01 6.3022200756771805e-03 -3.8621319589321537e-02  -1.5327317528740467e-01 6.3523129920110312e-03 -3.8613854928813626e-02  0.0000000000000000e+00 0.0000000000000000e+00 0.0000000000000000e+00  -9.9897186288025307e-03 3.9476035640755086e-03 -2.4898363006713938e-02  -1.9922571234008153e-02 7.5269962518758615e-03 -3.2202765720181541e-02  -3.0777870839672549e-02 1.0062873434778361e-02 -3.5992577409290460e-02  -4.2832886225580749e-02 1.1633133918832845e-02 -3.7751038757154576e-02  -5.5699516309574357e-02 1.2477083365686571e-02 -3.8513208837434414e-02  -6.9096963904555705e-02 1.2855000134089994e-02 -3.8791369030228819e-02  -8.2832418524506804e-02 1.2968241278480966e-02 -3.8836989885736972e-02  -9.6778999448204256e-02 1.2949997202529510e-02 -3.8786808366007522e-02  -1.1085718356110591e-01 1.2882164029171306e-02 -3.8713580496740098e-02  -1.2501670565268103e-01 1.2815779150619152e-02 -3.8658558134247151e-02  -1.3923043406691749e-01 1.2790040444620544e-02 -3.8643014910288320e-02  -1.5346456128877106e-01 1.2880647258544101e-02 -3.8670472264571362e-02  0.0000000000000000e+00 0.0000000000000000e+00 0.0000000000000000e+00  -1.0096570419182733e-02 6.3361323348687815e-03 -2.4380887321808296e-02  -2.0507856189173040e-02 1.1774738501898068e-02 -3.1320249157565490e-02  -3.1752009724861696e-02 1.5419080387434154e-02 -3.5034391950500635e-02  -4.3948471935246654e-02 1.7577063228968754e-02 -3.6909938353300156e-02  -5.6762195226499654e-02 1.8709648222288818e-02 -3.7857391552489503e-02  -7.0006892589108055e-02 1.9220190620983492e-02 -3.8320919333278698e-02  -8.3564264199750105e-02 1.9387162150524617e-02 -3.8522617359250409e-02  -9.7349540618499070e-02 1.9385329042000729e-02 -3.8594091427356224e-02  -1.1130168874832143e-01 1.9320027942405404e-02 -3.8613109803981860e-02  -1.2537452387226936e-01 1.9254838707642108e-02 -3.8629809734685411e-02  -1.3953891697235099e-01 1.9240450233561839e-02 -3.8675235394759144e-02  -1.5373960606458614e-01 1.9354173867247356e-02 -3.8751807424741276e-02  0.0000000000000000e+00 0.0000000000000000e+00 0.0000000000000000e+00  -1.0417861048095570e-02 9.2165498309743892e-03 -2.3616098617668800e-02  -2.1656912355281301e-02 1.6496118071431518e-02 -3.0071945553349945e-02  -3.3334856795853525e-02 2.0956158700348917e-02 -3.3821438399049601e-02  -4.5553327350873911e-02 2.3458268114892811e-02 -3.5917361667082280e-02  -5.8160051029716615e-02 2.4767211099089248e-02 -3.7129055447192784e-02  -7.1129204248300354e-02 2.5385699600889138e-02 -3.7820918317479059e-02  -8.4424668323262869e-02 2.5627024886128492e-02 -3.8200187047127875e-02  -9.7996492139089855e-02 2.5679887078134359e-02 -3.8402706344532939e-02  -1.1179213689962993e-01 2.5657474318659647e-02 -3.8516968000883306e-02  -1.2576183612417732e-01 2.5627997788307474e-02 -3.8604989769698159e-02  -1.3986721156493234e-01 2.5646541829739800e-02 -3.8708495329793043e-02  -1.5403402832841923e-01 2.5766440626147781e-02 -3.8834813308295225e-02  0.0000000000000000e+00 0.0000000000000000e+00 0.0000000000000000e+00  -1.1581821560280592e-02 1.3325233313921296e-02 -2.2216608472411314e-02  -2.3974080625361854e-02 2.1863422821385169e-02 -2.8687997711114677e-02  -3.5764355138543667e-02 2.6498014911859796e-02 -3.2610235778774338e-02  -4.7584118659871943e-02 2.9102479485526474e-02 -3.5060893860357378e-02  -5.9718432724762897e-02 3.0537311832023035e-02 -3.6551240429737335e-02  -7.2269606920897234e-02 3.1292329273269887e-02 -3.7449476466715433e-02  -8.5238917213034324e-02 3.1662127554158967e-02 -3.7974254838500907e-02  -9.8575786423951803e-02 3.1825591178707785e-02 -3.8276787205880028e-02  -1.1221344618017576e-01 3.1893881100891253e-02 -3.8459876776556302e-02  -1.2608586763886290e-01 3.1937689695924254e-02 -3.8595764799518095e-02  -1.4013559630080952e-01 3.2011867170881593e-02 -3.8733000093532872e-02  -1.5428105065819955e-01 3.2133280588124008e-02 -3.8889767333180995e-02  0.0000000000000000e+00 0.0000000000000000e+00 0.0000000000000000e+00  -1.5662718303173780e-02 1.9869608499295262e-02 -2.2994153865261043e-02  -2.8039875037969786e-02 2.7433675961256888e-02 -2.7924558834366748e-02  -3.8674045413348596e-02 3.1797661748991762e-02 -3.2194199291570046e-02  -4.9574876589088560e-02 3.4453760050608968e-02 -3.4784759186767232e-02  -6.1036808881368566e-02 3.6059770627556324e-02 -3.6368217179923612e-02  -7.3120931873694464e-02 3.7012812375872867e-02 -3.7337687875256390e-02  -8.5782450553880354e-02 3.7566255167209149e-02 -3.7908354197510000e-02  -9.8926898660780901e-02 3.7883825965143031e-02 -3.8241024042931920e-02  -1.1245444710575310e-01 3.8074331164001898e-02 -3.8444026730070344e-02  -1.2627423319843112e-01 3.8211598994629697e-02 -3.8592307881903626e-02  -1.4029990917250851e-01 3.8348884870491498e-02 -3.8735595899558009e-02  -1.5444166698112968e-01 3.8491008955321364e-02 -3.8897717180768232e-02  0.0000000000000000e+00 0.0000000000000000e+00 0.0000000000000000e+00  -1.1609113347569987e-02 -2.2254839471743497e-02 -1.4340208161972795e-02  -2.4125242713961458e-02 -2.8512574199976978e-02 -2.2404621363116259e-02  -3.5879241349096216e-02 -3.2568385392528876e-02 -2.6946196180628552e-02  -4.7665474473913984e-02 -3.5053101314563684e-02 -2.9502244126194763e-02  -5.9782048062983970e-02 -3.6562158515178127e-02 -3.0911617009777487e-02  -7.2332617418055883e-02 -3.7461983860652366e-02 -3.1661478308601228e-02  -8.5308092633931756e-02 -3.7984523639353361e-02 -3.2033645672312913e-02  -9.8652250868754635e-02 -3.8284854514856317e-02 -3.2202507809084104e-02  -1.1229643739436831e-01 -3.8466805243474532e-02 -3.2277350141528299e-02  -1.2617394552204159e-01 -3.8603191414560208e-02 -3.2330365147757674e-02  -1.4022810138974751e-01 -3.8744607132051495e-02 -3.2408065230613743e-02  -1.5437220223525425e-01 -3.8903251299541211e-02 -3.2555489583583730e-02  0.0000000000000000e+00 0.0000000000000000e+00 0.0000000000000000e+00  -6.1230159656655509e-03 -1.5119206117653747e-02 -1.5119206117653742e-02  -2.0034588483218690e-02 -2.2251943640420331e-02 -2.2251943640420314e-02  -3.3093827519317012e-02 -2.6941815525756276e-02 -2.6941815525756283e-02  -4.5796885068790087e-02 -2.9453628869372226e-02 -2.9453628869372174e-02  -5.8541899333404111e-02 -3.0864678176782012e-02 -3.0864678176782036e-02  -7.1523285466976616e-02 -3.1622561561675262e-02 -3.1622561561675248e-02  -8.4783411002349623e-02 -3.2004105216466308e-02 -3.2004105216466322e-02  -9.8306052834583851e-02 -3.2182062144293061e-02 -3.2182062144293089e-02  -1.1205281665341398e-01 -3.2265139970202535e-02 -3.2265139970202597e-02  -1.2598134231993058e-01 -3.2325316383250167e-02 -3.2325316383250209e-02  -1.4004990877477536e-01 -3.2410484709743198e-02 -3.2410484709743288e-02  -1.5419700030568451e-01 -3.2551692813249572e-02 -3.2551692813249676e-02  0.0000000000000000e+00 0.0000000000000000e+00 0.0000000000000000e+00  -5.0245944575960507e-03 -9.9003109727309555e-03 -1.5953535576430394e-02  -1.7759343357168080e-02 -1.6670300226745143e-02 -2.3346976922107569e-02  -3.0780069078348831e-02 -2.1093640318435601e-02 -2.7953712293838695e-02  -4.3894273399369174e-02 -2.3569125513946493e-02 -3.0146637490337854e-02  -5.7094266759482828e-02 -2.4914981872366293e-02 -3.1326511792121182e-02  -7.0463489973840887e-02 -2.5586622427004161e-02 -3.1915510774592162e-02  -8.4021714637544945e-02 -2.5881247233208986e-02 -3.2180448294320797e-02  -9.7758011919363619e-02 -2.5981720514983715e-02 -3.2279739009136915e-02  -1.1164794083224605e-01 -2.5999685364620953e-02 -3.2309940773797348e-02  -1.2566506684971196e-01 -2.6006681440393545e-02 -3.2334298421702989e-02  -1.3978293199349842e-01 -2.6052911928198062e-02 -3.2392919089618194e-02  -1.5395586582889495e-01 -2.6190278532598296e-02 -3.2511438924116301e-02  0.0000000000000000e+00 0.0000000000000000e+00 0.0000000000000000e+00  -4.5949420702794726e-03 -6.8491737504456475e-03 -1.6723681705684168e-02  -1.6352016669196088e-02 -1.1883299615099810e-02 -2.4547860285241103e-02  -2.9138215218290506e-02 -1.5459067185627515e-02 -2.9104789458002264e-02  -4.2335647979858816e-02 -1.7605153437872050e-02 -3.1068200703993919e-02  -5.5773319671782035e-02 -1.8786396643552757e-02 -3.2001632227197492e-02  -6.9416137723883220e-02 -1.9364897796673525e-02 -3.2375676521421891e-02  -8.3221435868154878e-02 -1.9599999659725260e-02 -3.2474782500058016e-02  -9.7154449657935932e-02 -1.9659389761889749e-02 -3.2453095003705780e-02  -1.1118707032915935e-01 -1.9646603484452449e-02 -3.2396656965259472e-02  -1.2529845576267304e-01 -1.9627761823750638e-02 -3.2358045163542792e-02  -1.3947179436881596e-01 -1.9653012126978068e-02 -3.2368792707906963e-02  -1.5368307810735213e-01 -1.9782334065956642e-02 -3.2450054793048584e-02  0.0000000000000000e+00 0.0000000000000000e+00 0.0000000000000000e+00  -4.3630447279663165e-03 -4.4087303065216566e-03 -1.7247491829247289e-02  -1.5619799803794946e-02 -7.6886835088809695e-03 -2.5426394615422114e-02  -2.8121066388933171e-02 -1.0162224011349445e-02 -3.0045025318876442e-02  -4.1241705987607867e-02 -1.1715924047178772e-02 -3.1889593132257643e-02  -5.4761794110926305e-02 -1.2592296766030022e-02 -3.2637195744665753e-02  -6.8562176519613383e-02 -1.3024185120616052e-02 -3.2828387265013616e-02  -8.2538155450057285e-02 -1.3195359749951792e-02 -3.2775087490188828e-02  -9.6621123765073744e-02 -1.3231452195743508e-02 -3.2635878786772946e-02  -1.1076926467104160e-01 -1.3212362091936769e-02 -3.2491670713002609e-02  -1.2495986232582201e-01 -1.3189670143937378e-02 -3.2387109719592473e-02  -1.3918204525705624e-01 -1.3205154427461814e-02 -3.2347331061234740e-02  -1.5343097799253794e-01 -1.3309345098060477e-02 -3.2391611845043605e-02  0.0000000000000000e+00 0.0000000000000000e+00 0.0000000000000000e+00  -4.2492309890927830e-03 -2.2827929308820568e-03 -1.7554498461637657e-02  -1.5245639840978200e-02 -3.8688560577548443e-03 -2.5952044457045659e-02  -2.7556669511588239e-02 -5.1223277409903258e-03 -3.0641028753422384e-02  -4.0596608441320625e-02 -5.9270039904478341e-03 -3.2432385336918536e-02  -5.4134244617635843e-02 -6.3889161489850878e-03 -3.3071703284253372e-02  -6.8010501193048356e-02 -6.6186243457118281e-03 -3.3146547252785909e-02  -8.2082690973473052e-02 -6.7094650727380408e-03 -3.2990849782164718e-02  -9.6256909723259676e-02 -6.7278723192872574e-03 -3.2769635448189283e-02  -1.1047848752053559e-01 -6.7170834355672849e-03 -3.2562450413635001e-02  -1.2472080606664304e-01 -6.7051204725727259e-03 -3.2409559205449030e-02  -1.3897604598863422e-01 -6.7163472724628137e-03 -3.2332670872616348e-02  -1.5325190726528592e-01 -6.7780046717616010e-03 -3.2350223303696468e-02  0.0000000000000000e+00 0.0000000000000000e+00 0.0000000000000000e+00  -4.2065762103286278e-03 -2.9556002581735547e-04 -1.7666565402362479e-02  -1.5114712043933465e-02 -2.1863951374508821e-04 -2.6131936654487264e-02  -2.7363081876128032e-02 -2.1599872532821883e-04 -3.0848477957081708e-02  -4.0373305078593935e-02 -2.0131764759504599e-04 -3.2623374866020266e-02  -5.3913843427650120e-02 -1.9143243437997012e-04 -3.3225919246820751e-02  -6.7813680675292504e-02 -1.8591636930759354e-04 -3.3260048209750585e-02  -8.1917677083793383e-02 -1.8413525404343336e-04 -3.3067963956668181e-02  -9.6122910816582016e-02 -1.8547869816104806e-04 -3.2817300808757617e-02  -1.1036985261545448e-01 -1.8944602652589649e-04 -3.2587283564365750e-02  -1.2463020994435746e-01 -1.9519789072256771e-04 -3.2416662495367364e-02  -1.3889741707383693e-01 -2.0391852989845439e-04 -3.2326218935277810e-02  -1.5318308445043288e-01 -2.1233707794385043e-04 -3.2333716906255777e-02  0.0000000000000000e+00 0.0000000000000000e+00 0.0000000000000000e+00  -4.2226347054716527e-03 1.6732411379095221e-03 -1.7592148701826744e-02  -1.5197011349962363e-02 3.4283467756887303e-03 -2.5972609789358045e-02  -2.7512774857469790e-02 4.6886247447531400e-03 -3.0659653325492399e-02  -4.0560640193031183e-02 5.5243214958834094e-03 -3.2443500100733123e-02  -5.4106089955845343e-02 6.0065349940313251e-03 -3.3076256744178606e-02  -6.7988007741566880e-02 6.2472823578561144e-03 -3.3146785160245780e-02  -8.2063822962499741e-02 6.3414631971722016e-03 -3.2988792646069826e-02  -9.6240065394863600e-02 6.3569864028426189e-03 -3.2766511141862284e-02  -1.1046267802432654e-01 6.3382598012652787e-03 -3.2558813464631027e-02  -1.2470545324324513e-01 6.3148559586015613e-03 -3.2405435402262282e-02  -1.3896170503656885e-01 6.3092270096505448e-03 -3.2328389923295203e-02  -1.5323769981533478e-01 6.3544860465185064e-03 -3.2344673365340519e-02  0.0000000000000000e+00 0.0000000000000000e+00 0.0000000000000000e+00  -4.3045199644389832e-03 3.74244307717844