<?xml version="1.0"?>
<VTKFile type="UnstructuredGrid"  version="0.1"  >
<UnstructuredGrid>
<Piece  NumberOfPoints="614" NumberOfCells="2496">
<Points>
<DataArray  type="Float64"  NumberOfComponents="3"  format="ascii">0 0 0.3333333333333333  0 0 0.4166666666666667  0.0917734812045832 0.02222061714627169 0.4186894914394618  0.08681256566955363 0.09901706297608344 0.4186342163966723  0 0.08333333333333333 0.4166666666666667  0.08677385972640335 0.09911471487120313 0.5002070092134301  0.09175419076546959 0.02232589429627933 0.5001707338255345  0 0 0.5  0 0.08333333333333333 0.5  0.1835142254804013 0.02858056066612719 0.4202169287787218  0.1795576972308102 0.1062140713912408 0.4200658701685954  0.1794385461922627 0.1063757745239758 0.5001447286267585  0.1834171173115721 0.02874700555977676 0.5001485322640619  0.2757780367170695 0.03199228827513561 0.4213234660040518  0.2732437377431197 0.1103188428369769 0.4211620736767596  0.2730691827720443 0.1104983947452818 0.5001373910197801  0.2756098997334854 0.03217449919073576 0.5001298614262728  0.3693962930814711 0.03344367783281639 0.4220060617892826  0.3679668200687761 0.1117470973314045 0.4218510801081355  0.3677687337478358 0.1119091219447638 0.500119158523636  0.3691922324481551 0.03360774829547031 0.50011392481353  0.4638762433104481 0.03398737858816793 0.4223630275833306  0.4630508826530174 0.112243149759283 0.4222342016200542  0.4628597624550062 0.1123718039884018 0.5001080203933382  0.4636728416983449 0.03411777611838018 0.5001038082207385  0.08571503276777818 0.1771961503802739 0.4186624178430284  0.08568040241458458 0.1772977401113043 0.5002067158700848  0 0.1666666666666667 0.4166666666666667  0 0.1666666666666667 0.5  0.1773053542652342 0.1838989436242189 0.4201384005672673  0.1771893016892757 0.1840413389638353 0.5001545705759798  0.270939403741309 0.1877590587794974 0.4212464476390818  0.270761184146211 0.1879099825820318 0.5001546014660445  0.3660967363410059 0.1894224897903313 0.4219196678075219  0.3658920365994072 0.1895585496979871 0.5001330429205438  0.4616734720303288 0.1900366959579232 0.4222847404087786  0.4614758221183303 0.190145518182411 0.5001200196407792  0.0853961017189 0.2572090428662793 0.4187754596553493  0.08536310671184313 0.2572936583939594 0.5002185278154361  0 0.25 0.4166666666666667  0 0.25 0.5  0.1759325865592746 0.2622106856045724 0.4202929711748439  0.1758133046839919 0.2623156854896121 0.5001622366809503  0.2693159897709692 0.2653800682294639 0.4214024012203024  0.2691289460619148 0.2654943069376997 0.5001558878004467  0.3644804391254579 0.2669639262142354 0.4220552107290063  0.3642657606666561 0.2670677318743233 0.5001317106894516  0.4603411155075994 0.2675926722213551 0.422390478066756  0.4601331766840266 0.267676350959284 0.5001179822396442  0.5564964113663217 0.2677079305626848 0.4225233390032512  0.5563162163799875 0.2677692840872433 0.5001098739433948  0.08518367719928867 0.3378829826677829 0.4188878225297536  0.08515018046944235 0.3379412642337746 0.5002266067882408  0 0.3333333333333333 0.4166666666666667  0 0.3333333333333333 0.5  0.1752336438682555 0.3411382211924899 0.4204369544897559  0.1751123919858137 0.3412066187497555 0.5001605934281412  0.2680970840428581 0.3434336178688861 0.500153712477627  0.3630946434169624 0.3446211567336849 0.5001286672234209  0.459082226514242 0.3451328208225619 0.5001144473375875  0.5554494848135119 0.3452514999544857 0.5001065732971053  0.0850942867901051 0.4189664806871815 0.4189664806871814  0.08506042116827464 0.4189956310439388 0.5002310914514666  0 0.4166666666666667 0.4166666666666667  0 0.4166666666666667 0.5  0.1747620218984199 0.4205658178022824 0.5001567675396346  0.2675081694973275 0.4216989717765923 0.5001498902781975  0.08502635753355137 0.5002309828260371 0.5002309828260371  0 0.5 0.5  0.1746384672165441 0.5001508588013091 0.5001508588013089  0.08679315035729056 0.09904860207856672 0.5817924475461314  0.0917501004977309 0.0222542021780339 0.5816631833606173  0 0 0.5833333333333334  0 0.08333333333333333 0.5833333333333334  0.1795202642947413 0.106231360586792 0.5802287215227083  0.1834780440784255 0.02860116407912005 0.5800848138222245  0.2732126657788184 0.1103246348883247 0.5791129330073551  0.275747601635731 0.03200000747033781 0.5789362209848165  0.3679467532277964 0.1117437167667488 0.5783860521478553  0.3693772375101512 0.03344233373246173 0.5782216497318886  0.4630408204258681 0.1122355852052942 0.5779812541616937  0.4638673820837377 0.03398136875087461 0.5778449136562221  0.5589105866449164 0.0340935398533992 0.5776897249771227  0.5584600620747504 0.1122403417190661 0.5777921051674653  0.08569861388033255 0.1772299458993383 0.5817665568895857  0 0.1666666666666667 0.5833333333333334  0.1772736092070494 0.1839100010897056 0.5801789343059467  0.2709101968291884 0.1877553565542152 0.5790642618650473  0.3660748145401225 0.1894115333204378 0.5783444174650348  0.4616593495100746 0.1900240421696615 0.5779532729586585  0.5575074659943938 0.1900733014615975 0.5777751411133795  0.08537919027364413 0.2572333816287565 0.5816794741424018  0 0.25 0.5833333333333334  0.1758957270921309 0.2622073753868714 0.5800394304793094  0.269281879485027 0.265372878168848 0.5789097658964543  0.3644571754635221 0.2669527969288293 0.5782044200783197  0.4603265057989308 0.267580722063106 0.5778421587237632  0.5564870956220206 0.2676973252461791 0.5776948432245641  0.08516560744649568 0.3378975926188846 0.5815839799595564  0 0.3333333333333333 0.5833333333333334  0.1751956308082222 0.3411310767129513 0.5798907672045435  0.26825500803156 0.3433510116319511 0.5787487968680294  0.363294529117574 0.3445422005283415 0.5780564716127387  0.4592853911771066 0.3450668042286898 0.5777213628500599  0.5556294441036351 0.3452015069040474 0.5776052921094696  0.08507595295893247 0.4189714210122173 0.5815145255743748  0 0.4166666666666667 0.5833333333333334  0.1748464236766797 0.4205247672797391 0.579784127875082  0.2676692741645972 0.4216550860452319 0.5786329672422632  0.362615008555455 0.4222811893306422 0.5779478390363614  0.4586382728206904 0.4225725940018122 0.5776313555518023  0.5550741991857917 0.4226557895529007 0.5775374974594727  0.08504197889973499 0.5002264633961803 0.5814852112500264  0 0.5 0.5833333333333334  0.1747234306170323 0.5001443083534394 0.5797411751833343  0.2674738313850525 0.5001390547049913 0.5785872293895263  0.3623874658211815 0.50011189293201 0.5779050828819173  0.08505753525159616 0.5815003003801897 0.5815003003801898  0.1748082038029085 0.5797689846884571 0.5797689846884571  0.2676357471318127 0.5786200663657178 0.5786200663657178  0.08687948175640529 0.09881231299236624 0.6632872234369668  0.09176943288400335 0.02199978612050668 0.6630694910867865  0 0 0.6666666666666666  0 0.08333333333333333 0.6666666666666666  0.1798274141272306 0.1057760767811392 0.6601688768807502  0.1837269505381127 0.02813450890120278 0.6598936612944829  0.2737011221770079 0.1098031790248397 0.657976583302089  0.2762218938522481 0.03147180804538655 0.6576629588718765  0.3685146542747443 0.1112668687946625 0.6566017238287444  0.3699678023718515 0.03295996352153435 0.6563134305706959  0.4635911902464868 0.111855195561974 0.6558563365840586  0.4644560739384334 0.03359685923609837 0.6556222600361249  0.5589375537720112 0.1119641816722248 0.655510642581928  0.5594287246415757 0.03381382989963379 0.6553374771887244  0.08577578206642851 0.1769894492598936 0.6632097967967241  0 0.1666666666666667 0.6666666666666666  0.1775811112783597 0.1835070489537764 0.6600195791952556  0.2714126893745431 0.1873061272980466 0.6578248971198722  0.3666600098146878 0.1889998774561504 0.6564756572361977  0.4622227233564906 0.1896934975644296 0.6557672542122008  0.5579912601940324 0.1898320699719629 0.6554537193792906  0.08545021811391232 0.2570298218318656 0.6630014298191732  0 0.25 0.6666666666666666  0.1762016592450051 0.2618932547341054 0.6597043091951293  0.2698010850104194 0.2650297358834174 0.6574899613596414  0.3650719645771266 0.2666373572348341 0.6561801033777501  0.46092069448458 0.2673250966857121 0.655537595411665  0.5569956355207236 0.2675090529004573 0.6552909687472225  0.08523528019118057 0.3377559524831105 0.6627927188715999  0 0.3333333333333333 0.6666666666666666  0.1755042852253431 0.3409207556955824 0.6593960423508715  0.2687897091830047 0.3431232960392013 0.6571592119761929  0.3639357001648243 0.3443317664540473 0.6558801596182909  0.459908719277306 0.3448949049482126 0.6552964892684388  0.5561631759384106 0.3450738272984993 0.6551145934190539  0.08514578939865666 0.4188971045916833 0.6626471429367733  0 0.4166666666666667 0.6666666666666666  0.1751582812838535 0.4204183073415818 0.6591835205755465  0.2682142317781943 0.4215408398347121 0.6569284499332644  0.3632733284097159 0.4221756606636125 0.6556667765498687  0.4592811681578146 0.4224863554011565 0.6551217789921754  0.5556254533182974 0.4225915718236155 0.6549844976437829  0.08511205387629263 0.5002180692771161 0.6625886604291714  0 0.5 0.6666666666666666  0.175036773973415 0.5001384157342391 0.6591034626656308  0.268022736946604 0.5001349177362453 0.6568422022478093  0.3630521762850145 0.5001091962712952 0.6555872849768912  0.4584150917472629 0.5000998053429386 0.5775962228187531  0.4590651453757911 0.5000986539147803 0.6550568843972839  0.5548818563854685 0.5000949151388552 0.5775110587978186  0.5554394443651672 0.5000947173739737 0.6549361808855707  0.08512757569128225 0.5815572773903321 0.6626231458988596  0 0.5833333333333334 0.6666666666666666  0.1751208456390861 0.5798631194651137 0.6591659276678735  0.2681820127497416 0.5787256160902337 0.656913814599793  0.3625940347868004 0.577936814755071 0.5779368147550711  0.3632539468914476 0.5780367370213764 0.6556561886374107  0.4586265219771024 0.577623592165463 0.5776235921654629  0.4592706342990606 0.577707517202471 0.6551154159753458  0.5550695848300031 0.5775323207719011 0.5775323207719013  0.555621416940773 0.5775961999784505 0.6549811060384334  0.1754311876463727 0.6593627390571616 0.65936273905716
[...]
<PointData  Vectors="f_35"> 
<DataArray  type="Float64"  Name="f_35"  NumberOfComponents="3" format="ascii">0.0000000000000000e+00 0.0000000000000000e+00 0.0000000000000000e+00  0.0000000000000000e+00 0.0000000000000000e+00 0.0000000000000000e+00  -9.8209393919313284e-03 -2.5797694933504922e-02 -2.3058501290432157e-03  -4.0730409419718139e-03 -1.8256757662692306e-02 -2.2681609528213938e-03  0.0000000000000000e+00 0.0000000000000000e+00 0.0000000000000000e+00  -4.0284464322150751e-03 -1.8372702376627002e-02 -2.4679411199924348e-04  -9.8002431464808450e-03 -2.5921649714219449e-02 -1.9970835310003076e-04  0.0000000000000000e+00 0.0000000000000000e+00 0.0000000000000000e+00  0.0000000000000000e+00 0.0000000000000000e+00 0.0000000000000000e+00  -1.9670089369070446e-02 -3.3356587518069136e-02 -4.0918821764747166e-03  -1.4863601544600586e-02 -2.6657181108575605e-02 -3.9158951171656782e-03  -1.4726508613539467e-02 -2.6853506240884246e-02 -1.7480897448357737e-04  -1.9560264063660064e-02 -3.3556740621114300e-02 -1.7778088648458571e-04  -2.9824482765728851e-02 -3.7341693182362939e-02 -5.3815666124624427e-03  -2.6804479869533854e-02 -3.1510685865900633e-02 -5.1891797955754401e-03  -2.6603220067249134e-02 -3.1729807689856240e-02 -1.6484130789173342e-04  -2.9631266613040306e-02 -3.7563112116807837e-02 -1.5652539375985509e-04  -4.1594454229519774e-02 -3.9033718952082581e-02 -6.1905299646074522e-03  -3.9880967108480173e-02 -3.3173350819482049e-02 -6.0030750815005425e-03  -3.9650190746096874e-02 -3.3372616445307035e-02 -1.4347285846227478e-04  -4.1355956464764337e-02 -3.9234908002998496e-02 -1.3739027467133110e-04  -5.4330554087201791e-02 -3.9667078544067147e-02 -6.6229608704127772e-03  -5.3338108367009328e-02 -3.3763086888433734e-02 -6.4650066229419373e-03  -5.3113267399683750e-02 -3.3922423100682692e-02 -1.2908572720627307e-04  -5.4089764372983733e-02 -3.9828377801955882e-02 -1.2411891850343742e-04  -2.7411920574064476e-03 -1.2226285879308596e-02 -2.3052408241271108e-03  -2.7015091241313037e-03 -1.2347559792918123e-02 -2.4413025004391958e-04  0.0000000000000000e+00 0.0000000000000000e+00 0.0000000000000000e+00  0.0000000000000000e+00 0.0000000000000000e+00 0.0000000000000000e+00  -1.2243647274503595e-02 -2.0013874183281977e-02 -4.0027816406231756e-03  -1.2110159945960526e-02 -2.0186748707773160e-02 -1.8308164310029633e-04  -2.4096555940590719e-02 -2.4586067769205446e-02 -5.2965205855989113e-03  -2.3891004410397477e-02 -2.4770996255377646e-02 -1.8632363072378945e-04  -3.7659945592546006e-02 -2.6550390794566347e-02 -6.0891410349717878e-03  -3.7421802199038463e-02 -2.6718232383495643e-02 -1.6044114678840578e-04  -5.1701244723083156e-02 -2.7288747978454150e-02 -6.5285536030835660e-03  -5.1469455197359945e-02 -2.7423771898044513e-02 -1.4398661417550673e-04  -2.3763988635191733e-03 -8.3658095732785272e-03 -2.4395639614807709e-03  -2.3387043051392251e-03 -8.4665610270618988e-03 -2.5712402867890958e-04  0.0000000000000000e+00 0.0000000000000000e+00 0.0000000000000000e+00  0.0000000000000000e+00 0.0000000000000000e+00 0.0000000000000000e+00  -1.0674356755551465e-02 -1.4184470580873777e-02 -4.1958308338122044e-03  -1.0537050309283908e-02 -1.4312375041188216e-02 -1.9478041457127271e-04  -2.2195392151589100e-02 -1.7902908217519890e-02 -5.4897858278151190e-03  -2.1979400426603783e-02 -1.8043309547556140e-02 -1.8872786512419542e-04  -3.5762776853514970e-02 -1.9772821199165531e-02 -6.2576011662245920e-03  -3.5512869953876834e-02 -1.9901082454944197e-02 -1.5903149611259991e-04  -5.0129250857986460e-02 -2.0531191661511416e-02 -6.6605803205287322e-03  -4.9885787143224669e-02 -2.0635067408619152e-02 -1.4185065453695914e-04  -6.4836737451110044e-02 -2.0681140888768004e-02 -6.8258245780300174e-03  -6.4623980151374827e-02 -2.0757904981374982e-02 -1.3044160492645631e-04  -2.1345370477861393e-03 -5.2770776021980170e-03 -2.5746288236714243e-03  -2.0962139261110151e-03 -5.3465116580595079e-03 -2.6722022523204924e-04  0.0000000000000000e+00 0.0000000000000000e+00 0.0000000000000000e+00  0.0000000000000000e+00 0.0000000000000000e+00 0.0000000000000000e+00  -9.8616716470390463e-03 -9.0574399516338226e-03 -4.3719825320653249e-03  -9.7219369637415697e-03 -9.1411940574460185e-03 -1.9356430685551248e-04  -2.0782627794911621e-02 -1.1746325105545951e-02 -1.8584262065329403e-04  -3.4149989546589828e-02 -1.3150894416710220e-02 -1.5576810391746931e-04  -4.8651343225558287e-02 -1.3767116575439336e-02 -1.3771482833970891e-04  -6.3599204020290526e-02 -1.3919268739967024e-02 -1.2650702274634708e-04  -2.0306792948484977e-03 -2.6683728693547254e-03 -2.6683728693549175e-03  -1.9919602761749636e-03 -2.7031312117679540e-03 -2.7253144751715323e-04  0.0000000000000000e+00 0.0000000000000000e+00 0.0000000000000000e+00  0.0000000000000000e+00 0.0000000000000000e+00 0.0000000000000000e+00  -9.3175202646109782e-03 -4.5292576473219687e-03 -1.8933699037895765e-04  -2.0105001957556438e-02 -5.8534710918713992e-03 -1.8164905219934094e-04  -1.9530168227265814e-03 -2.7242113053900686e-04 -2.7242113053904817e-04  0.0000000000000000e+00 0.0000000000000000e+00 0.0000000000000000e+00  -9.1749211268704715e-03 -1.8258778878827873e-04 -1.8258778878822005e-04  -4.0488433895620951e-03 -1.8293680227543848e-02 1.7590616217094818e-03  -9.7923219301848351e-03 -2.5836374198280034e-02 1.8919322248451341e-03  0.0000000000000000e+00 0.0000000000000000e+00 0.0000000000000000e+00  0.0000000000000000e+00 0.0000000000000000e+00 0.0000000000000000e+00  -1.4816820656943506e-02 -2.6681732699259619e-02 3.5593438114309320e-03  -1.9624978390970688e-02 -3.3384786782291904e-02 3.7302748442088977e-03  -2.6765564398640654e-02 -3.1520442940363193e-02 4.8584595566706495e-03  -2.9785724593890690e-02 -3.7354125122835674e-02 5.0682114055914055e-03  -3.9854961047808980e-02 -3.3171390109123552e-02 5.7175859429987987e-03  -4.1568850081489056e-02 -3.9034295721730582e-02 5.9160226123010249e-03  -5.3324797812657601e-02 -3.3754891149637069e-02 6.2077854421174437e-03  -5.4317925626605736e-02 -3.9660886758719850e-02 6.3747429388559228e-03  -6.7717827778655704e-02 -3.9788402944836682e-02 6.5729299634885866e-03  -6.7176254000780547e-02 -3.3758093595430555e-02 6.4456445918734794e-03  -2.7218099735357576e-03 -1.2266987837551833e-02 1.7981064636005495e-03  0.0000000000000000e+00 0.0000000000000000e+00 0.0000000000000000e+00  -1.2204699812444994e-02 -2.0029519301134086e-02 3.6259232416567112e-03  -2.4060290175985984e-02 -2.4583959485035774e-02 4.9209452933606226e-03  -3.7632046125435172e-02 -2.6538846034855259e-02 5.7703991067194395e-03  -5.1683357425833451e-02 -2.7274139656322180e-02 6.2432141619194045e-03  -6.6038236110980461e-02 -2.7339813030957155e-02 6.4669338314646248e-03  -2.3567230055677323e-03 -8.3949916224509077e-03 1.9038302938179437e-03  0.0000000000000000e+00 0.0000000000000000e+00 0.0000000000000000e+00  -1.0629807384107183e-02 -1.4182555713345979e-02 3.7961713020892526e-03  -2.2153442338066782e-02 -1.7896050350807040e-02 5.1106625802530767e-03  -3.5733259277579768e-02 -1.9760504889795097e-02 5.9434892470001631e-03  -5.0110966238383167e-02 -2.0517126143745998e-02 6.3810923566209503e-03  -6.4825265703161342e-02 -2.0668271128699445e-02 6.5671761059839058e-03  -2.1135302636632871e-03 -5.2946574998580295e-03 2.0179924777101879e-03  0.0000000000000000e+00 0.0000000000000000e+00 0.0000000000000000e+00  -9.8158112982213511e-03 -9.0505977900732591e-03 3.9763764242802448e-03  -2.0962694505308282e-02 -1.1645963744548521e-02 5.3078941168623849e-03  -3.4380436251872634e-02 -1.3054214737694742e-02 6.1255811446928789e-03  -4.8888000099985791e-02 -1.3685648438642822e-02 6.5306494860609618e-03  -6.3810950037865868e-02 -1.3856973933885953e-02 6.6789061012754612e-03  -2.0094230482394218e-03 -2.6743518168117915e-03 2.1008242396856470e-03  0.0000000000000000e+00 0.0000000000000000e+00 0.0000000000000000e+00  -9.4128632106984644e-03 -4.4800011185575318e-03 4.1051240999000300e-03  -2.0288968611551848e-02 -5.8000863791531423e-03 5.4491041787871558e-03  -3.3590789908811425e-02 -6.5380498580709812e-03 6.2589497367742941e-03  -4.8130592718730818e-02 -6.8871207040594549e-03 6.6420048562171475e-03  -6.3156816449491698e-02 -6.9917458043104895e-03 6.7634577590814883e-03  -1.9706056084497579e-03 -2.6699918189329792e-04 2.1357254945327431e-03  0.0000000000000000e+00 0.0000000000000000e+00 0.0000000000000000e+00  -9.2709847884193466e-03 -1.7471676300109498e-04 4.1569052822294878e-03  -2.0062703654827551e-02 -1.6858094532222852e-04 5.5049335331805709e-03  -3.3326030991011515e-02 -1.3576405457766920e-04 6.3115562085191727e-03  -1.9881486002838512e-03 2.1179035419689788e-03 2.1179035419690265e-03  -9.3668697352364359e-03 4.1235886393026812e-03 4.1235886393026847e-03  -2.0247845349086569e-02 5.4651906314665908e-03 5.4651906314665630e-03  -4.1445385107656768e-03 -1.8011411272675113e-02 3.8670433996341835e-03  -9.8058596325679113e-03 -2.5533779166336146e-02 4.0802170931892286e-03  0.0000000000000000e+00 0.0000000000000000e+00 0.0000000000000000e+00  0.0000000000000000e+00 0.0000000000000000e+00 0.0000000000000000e+00  -1.5162331588471091e-02 -2.6135508991889933e-02 7.4592323354618307e-03  -1.9897690231997688e-02 -3.2829965106541521e-02 7.7850708363105163e-03  -2.7324239302174296e-02 -3.0888325621696477e-02 1.0016358696908374e-02  -3.0325418264231352e-02 -3.6716953951437328e-02 1.0388854762073234e-02  -4.0513024906897843e-02 -3.2588188953564565e-02 1.1644507054026075e-02  -4.2254713424698630e-02 -3.8445643624969321e-02 1.1993571016777753e-02  -5.3971341387756645e-02 -3.3285247452636328e-02 1.2547422748554348e-02  -5.5012664749922266e-02 -3.9186882660378945e-02 1.2834601581433291e-02  -6.7744482021628860e-02 -3.3413542327537953e-02 1.2981186956125429e-02  -6.8338234071566445e-02 -3.9439526543077953e-02 1.3196940682692336e-02  -2.8091022294882543e-03 -1.1979798630443697e-02 3.9732758195306483e-03  0.0000000000000000e+00 0.0000000000000000e+00 0.0000000000000000e+00  -1.2553360874263461e-02 -1.9543948765796286e-02 7.6495861382696864e-03  -2.4636075483133953e-02 -2.4037482443760937e-02 1.0207803744086771e-02  -3.8309608340439366e-02 -2.6034117243240319e-02 1.1802397699757742e-02  -5.2343354603039488e-02 -2.6865450620020444e-02 1.2659205272166983e-02  -6.6611515328779472e-02 -2.7038658111143359e-02 1.3052405634699308e-02  -2.4373247188758267e-03 -8.1523275499250005e-03 4.2247493960249115e-03  0.0000000000000000e+00 0.0000000000000000e+00 0.0000000000000000e+00  -1.0977787483236398e-02 -1.3803308988319043e-02 8.0364183876796471e-03  -2.2749421277713969e-02 -1.7477697342173245e-02 1.0619615580168282e-02  -3.6445368250200484e-02 -1.9373122130588796e-02 1.2167985597213207e-02  -5.0806203319970780e-02 -2.0200808692887484e-02 1.2944560202214158e-02  -6.5426379950005900e-02 -2.0433174093769383e-02 1.3255851849007409e-02  -2.1928487404533838e-03 -5.1257604820442500e-03 4.4745876814426778e-03  0.0000000000000000e+00 0.0000000000000000e+00 0.0000000000000000e+00  -1.0167636107657739e-02 -8.7964284035171626e-03 8.4108693757508259e-03  -2.1577421663868168e-02 -1.1368007210007115e-02 1.1024564828696206e-02  -3.5123529272539020e-02 -1.2795504213041028e-02 1.2537620299896326e-02  -4.9616944943705887e-02 -1.3472780507776814e-02 1.3243351503042915e-02  -6.4440960108567397e-02 -1.3697487622616364e-02 1.3476117945044642e-02  -2.0890405677815170e-03 -2.5857143287861734e-03 4.6482362771039570e-03  0.0000000000000000e+00 0.0000000000000000e+00 0.0000000000000000e+00  -9.7687814810819024e-03 -4.3512341904553753e-03 8.6679158878420412e-03  -2.0916100686722242e-02 -5.6604354589435552e-03 1.1306349911929933e-02  -3.4354093166836963e-02 -6.4081216439193876e-03 1.2799996493259091e-02  -4.8882307426185954e-02 -6.7801799136383983e-03 1.3459657859732348e-02  -6.3807092255903960e-02 -6.9114332279885931e-03 1.3638527749658676e-02  -2.0505408806576770e-03 -2.5683854332982282e-04 4.7178813968485073e-03  0.0000000000000000e+00 0.0000000000000000e+00 0.0000000000000000e+00  -9.6287931725892780e-03 -1.6733683192210623e-04 8.7648402786534366e-03  -2.0694667397977994e-02 -1.6322277867051379e-04 1.1411839994542344e-02  -3.4096957694996925e-02 -1.3218151084371137e-04 1.2897903845545969e-02  -4.7870084809107448e-02 -1.1981614151401059e-04 6.6855544752712995e-03  -4.8630249425376026e-02 -1.1814296706597253e-04 1.3540160584339878e-02  -6.2930589899537856e-02 -1.1203392540035818e-04 6.7965244316163572e-03  -6.3588323605655278e-02 -1.1157497847675386e-04 1.3698986667032611e-02  -2.0680641147528549e-03 2.0502430624911448e-03 4.6771164967436283e-03  0.0000000000000000e+00 0.0000000000000000e+00 0.0000000000000000e+00  -9.7238918831407065e-03 4.0102465025350373e-03 8.6900362742725612e-03  -2.0876782781613701e-02 5.3367772012492959e-03 1.1325113489722587e-02  -3.3564715388982300e-02 6.2728196046980544e-03 6.2728196046979868e-03  -3.4330179579974453e-02 6.1503123376008446e-03 1.2813745139223962e-02  -4.8116667949027588e-02 6.6519209947318077e-03 6.6519209947317600e-03  -4.8870134857799119e-02 6.5483371678749227e-03 1.3468131927296637e-02  -6.3151695102889094e-02 6.7702135727095046e-03 6.7702135727095011e-03  -6.3803011420619990e-02 6.6907624819987268e-03 1.3643257923286325e-02  -1.0078120622668574e-02 8.4528079191060999e-03 8.4528079191061676e-03  -2.1495145301875053e-02 1.1059374834373704e-02 1.1059374834373565e-02  -3.5077482509373682e-02 1.2562731530839892e-02 1.2562731530839734e-02  -4.9602429143268033e-02 1.3258685246154882e-02 1.3258685246155004e-02  -6.4434949041612635e-02 1.3484582629108033e-02 1.3484582629108219e-02  -4.3552091880672663e-03 -1.7499948529811536e-02 6.2530194101186728e-03  -9.9082072494293891e-03 -2.4985406238996786e-02 6.5316030005002695e-03  0.0000000000000000e+00 0.0000000000000000e+00 0.0000000000000000e+00  0.0000000000000000e+00 0.0000000000000000e+00 0.0000000000000000e+00  -1.5882861437013052e-02 -2.5204017545684042e-02 1.1730708879454465e-02  -2.0510490692537752e-02 -3.1877862143391361e-02 1.2113093175259555e-02  -2.8386074961010900e-02 -2.9870970582414235e-02 1.5447723404244407e-02  -3.1378153742183765e-02 -3.5667570108911688e-02 1.5894935362030651e-02  -4.1662149565015481e-02 -3.1700176292593578e-02 1.7668084556509551e-02  -4.3452888026931848e-02 -3.7537287686191009e-02 1.8069069120400814e-02  -5.5033546279100752e-02 -3.2599545878841812e-02 1.8868487136751502e-02  -5.6151783184121284e-02 -3.8483051359505860e-02 1.9190519012430421e-02  -6.8633319455914638e-02 -3.2927801375376486e-02 1.9438771517744455e-02  -6.9304060861421310e-02 -3.8939826290428907e-02 1.9675468553727652e-02  -3.0027355464773411e-03 -1.1480368911988737e-02 6.5168398507130807e-03  0.0000000000000000e+00 0.0000000000000000e+00 0.0000000000000000e+00  -1.3273291829585015e-02 -1.8751479079785791e-02 1.2143496790348146e-02  -2.5730541310933160e-02 -2.3191346724724018e-02 1.5851794925105186e-02  -3.9499795961956650e-02 -2.5287627776443541e-02 1.7994535376075121e-02  -5.3432904559125013e-02 -2.6283956647083242e-02 1.9096765360512448e-02  -6.7512725640523394e-02 -2.6623426349769230e-02 1.9586159227079333e-02  -2.6173443714190749e-03 -7.7539767620318327e-03 6.9599767581709398e-03  0.0000000000000000e+00 0.0000000000000000e+00 0.0000000000000000e+00  -1.1697982036970297e-02 -1.3219700376521214e-02 1.2803004540929804e-02  -2.3885281600216867e-02 -1.6855289998144323e-02 1.6532930703185855e-02  -3.7697840549740499e-02 -1.8816339425938966e-02 1.8580593006076659e-02  -5.1953420629402787e-02 -1.9760391459012948e-02 1.9542199890580203e-02  -6.6370071365649291e-02 -2.0114725267847140e-02 1.9897828143333011e-02  -2.3695557930721116e-03 -4.8647416385841228e-03 7.3589984750368357e-03  0.0000000000000000e+00 0.0000000000000000e+00 0.0000000000000000e+00  -1.0893185628197142e-02 -8.4238536967993459e-03 1.3388101480254475e-02  -2.2745262487261827e-02 -1.0968116784823930e-02 1.7160773607793622e-02  -3.6426622866190562e-02 -1.2433501859738953e-02 1.9145113054566090e-02  -5.0816087382521934e-02 -1.3182623320835968e-02 1.9990951795790121e-02  -6.5426692711875081e-02 -1.3485383787670450e-02 2.0224015437530475e-02  -2.2646935440967914e-03 -2.4551282136638201e-03 7.6193670828228295e-03  0.0000000000000000e+00 0.0000000000000000e+00 0.0000000000000000e+00  -1.0498593844814863e-02 -4.1708960712991232e-03 1.3771656997071582e-02  -2.2102902422670226e-02 -5.4666491769739178e-03 1.7584050022937333e-02  -3.5688398824316347e-02 -6.2321371546983449e-03 1.9535874489512439e-02  -5.0115069894533314e-02 -6.6385445134101639e-03 2.0309277556159633e-02  -6.4821262190363660e-02 -6.8075483870417477e-03 2.0460255698232357e-02  -2.2259637894027230e-03 -2.4637317755627836e-04 7.7197024637541975e-03  0.0000000000000000e+00 0.0000000000000000e+00 0.0000000000000000e+00  -1.0360100934422795e-02 -1.6402032139989020e-04 1.3911064151477330e-02  -2.1888104546137377e-02 -1.6214356890932458e-04 1.7738002608098768e-02  -3.5442210444287053e-02 -1.3358995178071681e-04 1.9677743334085819e-02  -4.9874673412730337e-02 -1.2110087052313024e-04 2.0424837548873385e-02  -6.4612320200921960e-02 -1.1499839016429867e-04 2.0546106263182467e-02  -2.2436592206895654e-03 1.9422202305061369e-03 7.6565640975456038e-03  0.0000000000000000e+00 0.0000000000000000e+00 0.0000000000000000e+00  -1.0453968026336790e-02 3.8380816933979169e-03 1.3796303947428075e-02  -2.2065186842338640e-02 5.1460276641915785e-03 1.7604808595200517e-02  -3.5666373701164891e-02 5.9718884990602262e-03 1.9548672228939031e-02  -5.0103763298656623e-02 6.4008849693227218e-03 2.0315410958678382e-02  -6.4817099436154130e-02 6.5800889941369190e-03 2.0462250498309277e-02  -2.3253851822281403e-03 4.2952710148006666e-03 7.4324179664338628e-03  -1.0804620172054634e-02 8.0926909707288788e-03 1.3436257620753796e-02  -2.2666788052401594e-02 1.0664831380616949e-02 1.7200066065789735e-02  -3.6384670509511850e-02 1.2199269719048758e-02 1.9168926780244084e-02  -5.0803408914575868e-02 1.2963165660998205e-02 2.0002252091129581e-02  -6.5420553221693017e-02 1.3266053759075795e-02 2.0227786050014119e-02  -4.8432067889819814e-03 -1.6731264572829359e-02 9.1773248528456020e-03  -1.0210010478514685e-02 -2.4181569405971996e-02 9.2900477006287261e-03  0.0000000000000000e+00 0.0000000000000000e+00 0.0000000000000000e+00  0.0000000000000000e+00 0.0000000000000000e+00 0.0000000000000000e+00  -1.7282945962963221e-02 -2.3908643747736286e-02 1.6741066695280818e-02  -2.1816300673646059e-02 -3.0432716980536834e-02 1.7052599653580941e-02  -3.0112625529747576e-02 -2.8621125780194760e-02 2.1203542436197272e-02  -3.3097369664769505e-02 -3.4337337281056771e-02 2.1550125456007985e-02  -4.3336958860315945e-02 -3.0690457060123504e-02 2.3755433429240840e-02  -4.5202875996697769e-02 -3.6459017161305181e-02 2.4061246455457413e-02  -5.6427410416280431e-02 -3.1875189587130995e-02 2.5096339410421543e-02  -5.7637392029028560e-02 -3.7710839920880632e-02 2.5337279074213126e-02  -6.9727885611291396e-02 -3.2437977256596015e-02 2.5756731994223372e-02  -7.0484909994495276e-02 -3.8414430995359961e-02 2.5930551826030955e-02  -3.4254763333951685e-03 -1.0782354413486784e-02 9.7012835287103583e-03  0.0000000000000000e+00 0.0000000000000000e+00 0.0000000000000000e+00  -1.4660841408333170e-02 -1.7760783637161846e-02 1.7527263016496496e-02  -2.7524742474488210e-02 -2.2217839659203164e-02 2.1944444296072018e-02  -4.1238700623037916e-02 -2.4487991533474213e-02 2.4314290162669713e-02  -5.4868363541008838e-02 -2.5696593167743559e-02 2.5478913031457877e-02  -6.8623370586102364e-02 -2.6223261907481407e-02 2.6001418116186663e-02  -3.0141061645638473e-03 -7.2718610063371688e-03 1.0389200086355252e-02  0.0000000000000000e+00 0.0000000000000000e+00 0.0000000000000000e+00  -1.3088595617878869e-02 -1.2561995290382363e-02 1.8512502078615184e-02  -2.5750418293023398e-02 -1.6187639441206096e-02 2.2931269546699291e-02  -3.9520799667479900e-02 -1.8249246555873615e-02 2.5128941756697883e-02  -5.3458597389184896e-02 -1.9333573619237456e-02 2.6083936610618180e-02  -6.7524136128132295e-02 -1.9819589528152683e-02 2.6416143453372024e-02  -2.7544619578931382e-03 -4.5759558871636460e-03 1.0913133438267159e-02  0.0