<?xml version="1.0"?>
<VTKFile type="UnstructuredGrid"  version="0.1"  >
<UnstructuredGrid>
<Piece  NumberOfPoints="169" NumberOfCells="456">
<Points>
<DataArray  type="Float64"  NumberOfComponents="3"  format="ascii">0.0001918883722525078 0.004915988349957701 0  0.1037992541132553 0.04756316462628005 0  0.2000026074424575 0.06601642811037457 0  0.2946876718474325 0.07753670406771494 0  0.3897140699131987 0.08451481503241255 0  0.4853740766507716 0.08874062352770744 0  0.5817826522891901 0.09121889526190841 0  0.6789225264530013 0.09261068809310713 0  0.7767159912014084 0.09338526422733685 0  0.8750586043644266 0.09388043493232337 0  0.973829406411724 0.09435384359989321 0  1.072896515505033 0.09497554437412375 0  1.172059416980089 0.09581409689115168 0  -0.001036951500828055 0.0837685682836459 0  0.08972920712047858 0.1152134414975341 0  0.1878249034265554 0.1358999572469523 0  0.2860279096766997 0.1483506593014239 0  0.3836567375885929 0.1552386434552182 0  0.4812054268117798 0.1591149874780905 0  0.578955609806287 0.161116311651714 0  0.6769997652160245 0.1620277759793611 0  0.775353754615751 0.16236775997499 0  0.8739945663786561 0.1624975738681391 0  0.9728829938919547 0.1626856048064064 0  1.071967806344366 0.1631221321324339 0  1.171156255040267 0.1639359853494754 0  -0.0004868108178453169 0.1676009438587582 0  0.08770940571282165 0.1886092493437126 0  0.1824342464871637 0.2060505228763443 0  0.279655603797102 0.2175725708614247 0  0.3779124462230892 0.2243954301164988 0  0.4765115060149506 0.2281612150190936 0  0.5752660528693699 0.2299887376381916 0  0.6741364368088052 0.230711911146859 0  0.7731130197966745 0.230865353166706 0  0.8721922703619633 0.2308208792490032 0  0.9713789498216286 0.2308489069823665 0  1.07067517181463 0.2311532058579777 0  1.170050220292345 0.231961729480425 0  -0.0004379531772250605 0.2506152368509348 0  0.08686205413395523 0.2653021471717021 0  0.1793753124774926 0.2780736236816629 0  0.2754719547151225 0.2872691866462467 0  0.373524559489993 0.2931583870615121 0  0.472448798907504 0.2964966120078797 0  0.5717613643989485 0.2981419344910267 0  0.671219780419222 0.2987752677713141 0  0.7707141774225589 0.2988754547436145 0  0.8702061078018314 0.2987836902600806 0  0.9697036666136447 0.2987468267825756 0  1.069235710941316 0.2989717088402951 0  1.168852955555138 0.2997212986797142 0  -0.0003910746418025552 0.333852847660546 0  0.0865128494377423 0.3432971668507242 0  0.1780365499114937 0.3515617705890517 0  0.273152522071876 0.3578529387787114 0  0.3706269660911716 0.3620970914300667 0  0.4694613829737277 0.3645993359339271 0  0.5689860270658424 0.3658804438857508 0  0.6687838736521601 0.3663924933686049 0  0.768633153305297 0.366488671302669 0  0.8684363530275306 0.3664268426028188 0  0.9681824133655956 0.3663969499973593 0  1.067916216446829 0.366574442971723 0  1.167760156726373 0.367179262892062 0  -0.0003713632086336205 0.4171229326028003 0  0.08633551335736342 0.4218162432078947 0  0.1773403321453109 0.4259266459327393 0  0.271866250594024 0.4291296492362089 0  0.3689507594820264 0.4313568060351811 0  0.4676483355189164 0.4327155385717721 0  0.5672227052968791 0.4334399919241049 0  0.6671784836673176 0.4337544562161947 0  0.7672220934843217 0.4338444167525354 0  0.8672096336144371 0.4338476609718472 0  0.967109770092249 0.4338661064653484 0  1.066976345597244 0.4340055556112237 0  1.166979352814775 0.4343788409796082 0  -0.0003683220606629627 0.5004226631760813 0  0.0862639799891636 0.5006017988014621 0  0.1770914083179395 0.5007034751212731 0  0.271422966391751 0.5007663289037595 0  0.368359717246176 0.5008256115925291 0  0.4669880357799425 0.5008815129320418 0  0.5665647474143963 0.500939755569914 0  0.6665667641593225 0.5010038295025935 0  0.7666729155295681 0.5010758286851396 0  0.8667221314839181 0.5011562298290531 0  0.9666746172125937 0.5012409970213558 0  1.066588933287632 0.5013409603712516 0  1.16664906427644 0.5014299407248751 0  -0.000380060199634101 0.5837502406128825 0  0.0862762891109216 0.5794212019848838 0  0.177217754897577 0.5755021443542421 0  0.2717104559774716 0.5724165625334572 0  0.3687725140466655 0.5703024000572694 0  0.4674613143397468 0.5690477784994321 0  0.5670381776579072 0.5684370344644033 0  0.6670005768208445 0.5682500808443703 0  0.7670499465691222 0.5683046554883027 0  0.8670420162948562 0.5684628350831786 0  0.9669443303292191 0.5686149664614676 0  1.06681602890647 0.5686731109764094 0  1.166819462487295 0.5684761427804209 0  -0.0004167344897801141 0.6671241951809296 0  0.08637763848261483 0.6580516889205368 0  0.1777725033637358 0.6499468387473921 0  0.2728052570907467 0.6437325565400764 0  0.3702491512801671 0.6395800510134675 0  0.4690868484888739 0.6371608916222973 0  0.5686228154816281 0.6359862318564733 0  0.6684348005486186 0.6356019767869356 0  0.7682951576014045 0.6356526762126228 0  0.8681061998275462 0.6358779914615152 0  0.9678556408649148 0.6360815529243524 0  1.06759847298484 0.6360951676732248 0  1.167441759856822 0.6356636421500074 0  -0.0005149000051280585 0.750525454298719 0  0.08665839915062815 0.7361752105264521 0  0.1789963381494161 0.7235763681333505 0  0.2749825125074103 0.7143814163029339 0  0.3729582605989583 0.7085317292592375 0  0.4718907903130593 0.705253854771219 0  0.5712300559114503 0.7037049622460058 0  0.670712080790892 0.7032037009522567 0  0.7702205950259546 0.7032561078819666 0  0.8697196052784477 0.7035147631924197 0  0.9692189591747238 0.7037290363743635 0  1.06876182624099 0.7036850940221041 0  1.168375450737568 0.7031091289450575 0  -0.0006110244300299792 0.8340609679001347 0  0.08733114593726969 0.8132490829923829 0  0.1814890216789437 0.7957701869160912 0  0.2787671316904013 0.7841435336355062 0  0.3771304406801786 0.7772488272225705 0  0.475812605971816 0.7735436085121206 0  0.5746180852113102 0.7718211475450816 0  0.6735099418920324 0.7712460335632652 0  0.7724891479669548 0.7712579737922064 0  0.871563313783555 0.7714750537232971 0  0.9707429842616002 0.7716270372403344 0  1.070042183664798 0.7714909144823079 0  1.169411135707308 0.770865942826663 0  -0.002426990203582672 0.9172879761003019 0  0.08975945943462645 0.8874271556441072 0  0.1870223904453176 0.8658146663260606 0  0.2852340734756935 0.8533671307916922 0  0.3829288690871951 0.8463281318141257 0  0.4805201413198431 0.8425465651095592 0  0.5782557799324124 0.84069335628519 0  0.6762650599083428 0.8399476697594619 0  0.7745820740386318 0.8397782732557902 0  0.8731911516491399 0.8398190101080992 0  0.9720555010127161 0.8398024064950693 0  1.071131316696107 0.8395183710338647 0  1.170322937345195 0.8388876669447176 0  -0.002169918336515319 0.9953991951705846 0  0.0993439551240871 0.9562010551818789 0  0.1991432046121057 0.9353885610313571 0  0.2942972355773978 0.9238894984602417 0  0.3892399879993306 0.9169751152473229 0  0.484749492067413 0.912922349627225 0  0.5810229176890858 0.9106150904398029 0  0.6780644657113016 0.909391079426155 0  0.7757873779726722 0.9087822562313375 0  0.8740817129928836 0.9084511491478924 0  0.9728242310852605 0.9081452685213585 0  1.071864781770726 0.9076794819864847 0  1.171019999630602 0.907019995351504 0  </DataArray>
</Points>
<Cells>
<DataArray  type="UInt32"  Name="connectivity"  format="ascii">0 1  0 13  0 14  1 2  1 14  1 15  2 3  2 15  2 16  3 4  3 16  3 17  4 5  4 17  4 18  5 6  5 18  5 19  6 7  6 19  6 20  7 8  7 20  7 21  8 9  8 21  8 22  9 10  9 22  9 23  10 11  10 23  10 24  11 12  11 24  11 25  12 25  13 14  13 26  13 27  14 15  14 27  14 28  15 16  15 28  15 29  16 17  16 29  16 30  17 18  17 30  17 31  18 19  18 31  18 32  19 20  19 32  19 33  20 21  20 33  20 34  21 22  21 34  21 35  22 23  22 35  22 36  23 24  23 36  23 37  24 25  24 37  24 38  25 38  26 27  26 39  26 40  27 28  27 40  27 41  28 29  28 41  28 42  29 30  29 42  29 43  30 31  30 43  30 44  31 32  31 44  31 45  32 33  32 45  32 46  33 34  33 46  33 47  34 35  34 47  34 48  35 36  35 48  35 49  36 37  36 49  36 50  37 38  37 50  37 51  38 51  39 40  39 52  39 53  40 41  40 53  40 54  41 42  41 54  41 55  42 43  42 55  42 56  43 44  43 56  43 57  44 45  44 57  44 58  45 46  45 58  45 59  46 47  46 59  46 60  47 48  47 60  47 61  48 49  48 61  48 62  49 50  49 62  49 63  50 51  50 63  50 64  51 64  52 53  52 65  52 66  53 54  53 66  53 67  54 55  54 67  54 68  55 56  55 68  55 69  56 57  56 69  56 70  57 58  57 70  57 71  58 59  58 71  58 72  59 60  59 72  59 73  60 61  60 73  60 74  61 62  61 74  61 75  62 63  62 75  62 76  63 64  63 76  63 77  64 77  65 66  65 78  65 79  66 67  66 79  66 80  67 68  67 80  67 81  68 69  68 81  68 82  69 70  69 82  69 83  70 71  70 83  70 84  71 72  71 84  71 85  72 73  72 85  72 86  73 74  73 86  73 87  74 75  74 87  74 88  75 76  75 88  75 89  76 77  76 89  76 90  77 90  78 79  78 91  78 92  79 80  79 92  79 93  80 81  80 93  80 94  81 82  81 94  81 95  82 83  82 95  82 96  83 84  83 96  83 97  84 85  84 97  84 98  85 86  85 98  85 99  86 87  86 99  86 100  87 88  87 100  87 101  88 89  88 101  88 102  89 90  89 102  89 103  90 103  91 92  91 104  91 105  92 93  92 105  92 106  93 94  93 106  93 107  94 95  94 107  94 108  95 96  95 108  95 109  96 97  96 109  96 110  97 98  97 110  97 111  98 99  98 111  98 112  99 100  99 112  99 113  100 101  100 113  100 114  101 102  101 114  101 115  102 103  102 115  102 116  103 116  104 105  104 117  104 118  105 106  105 118  105 119  106 107  106 119  106 120  107 108  107 120  107 121  108 109  108 121  108 122  109 110  109 122  109 123  110 111  110 123  110 124  111 112  111 124  111 125  112 113  112 125  112 126  113 114  113 126  113 127  114 115  114 127  114 128  115 116  115 128  115 129  116 129  117 118  117 130  117 131  118 119  118 131  118 132  119 120  119 132  119 133  120 121  120 133  120 134  121 122  121 134  121 135  122 123  122 135  122 136  123 124  123 136  123 137  124 125  124 137  124 138  125 126  125 138  125 139  126 127  126 139  126 140  127 128  127 140  127 141  128 129  128 141  128 142  129 142  130 131  130 143  130 144  131 132  131 144  131 145  132 133  132 145  132 146  133 134  133 146  133 147  134 135  134 147  134 148  135 136  135 148  135 149  136 137  136 149  136 150  137 138  137 150  137 151  138 139  138 151  138 152  139 140  139 152  139 153  140 141  140 153  140 154  141 142  141 154  141 155  142 155  143 144  143 156  143 157  144 145  144 157  144 158  145 146  145 158  145 159  146 147  146 159  146 160  147 148  147 160  147 161  148 149  148 161  148 162  149 150  149 162  149 163  150 151  150 163  150 164  151 152  151 164  151 165  152 153  152 165  152 166  153 154  153 166  153 167  154 155  154 167  154 168  155 168  156 157  157 158  158 159  159 160  160 161  161 162  162 163  163 164  164 165  165 166  166 167  167 168  </DataArray>
<DataArray  type="UInt32"  Name="offsets"  format="ascii">2 4 6 8 10 12 14 16 18 20 22 24 26 28 30 32 34 36 38 40 42 44 46 48 50 52 54 56 58 60 62 64 66 68 70 72 74 76 78 80 82 84 86 88 90 92 94 96 98 100 102 104 106 108 110 112 114 116 118 120 122 124 126 128 130 132 134 136 138 140 142 144 146 148 150 152 154 156 158 160 162 164 166 168 170 172 174 176 178 180 182 184 186 188 190 192 194 196 198 200 202 204 206 208 210 212 214 216 218 220 222 224 226 228 230 232 234 236 238 240 242 244 246 248 250 252 254 256 258 260 262 264 266 268 270 272 274 276 278 280 282 284 286 288 290 292 294 296 298 300 302 304 306 308 310 312 314 316 318 320 322 324 326 328 330 332 334 336 338 340 342 344 346 348 350 352 354 356 358 360 362 364 366 368 370 372 374 376 378 380 382 384 386 388 390 392 394 396 398 400 402 404 406 408 410 412 414 416 418 420 422 424 426 428 430 432 434 436 438 440 442 444 446 448 450 452 454 456 458 460 462 464 466 468 470 472 474 476 478 480 482 484 486 488 490 492 494 496 498 500 502 504 506 508 510 512 514 516 518 520 522 524 526 528 530 532 534 536 538 540 542 544 546 548 550 552 554 556 558 560 562 564 566 568 570 572 574 576 578 580 582 584 586 588 590 592 594 596 598 600 602 604 606 608 610 612 614 616 618 620 622 624 626 628 630 632 634 636 638 640 642 644 646 648 650 652 654 656 658 660 662 664 666 668 670 672 674 676 678 680 682 684 686 688 690 692 694 696 698 700 702 704 706 708 710 712 714 716 718 720 722 724 726 728 730 732 734 736 738 740 742 744 746 748 750 752 754 756 758 760 762 764 766 768 770 772 774 776 778 780 782 784 786 788 790 792 794 796 798 800 802 804 806 808 810 812 814 816 818 820 822 824 826 828 830 832 834 836 838 840 842 844 846 848 850 852 854 856 858 860 862 864 866 868 870 872 874 876 878 880 882 884 886 888 890 892 894 896 898 900 902 904 906 908 910 912 </DataArray>
<DataArray  type="UInt8"  Name="types"  format="ascii">3 3 3 3 3 3 3 3 3 3 3 3 3 3 3 3 3 3 3 3 3 3 3 3 3 3 3 3 3 3 3 3 3 3 3 3 3 3 3 3 3 3 3 3 3 3 3 3 3 3 3 3 3 3 3 3 3 3 3 3 3 3 3 3 3 3 3 3 3 3 3 3 3 3 3 3 3 3 3 3 3 3 3 3 3 3 3 3 3 3 3 3 3 3 3 3 3 3 3 3 3 3 3 3 3 3 3 3 3 3 3 3 3 3 3 3 3 3 3 3 3 3 3 3 3 3 3 3 3 3 3 3 3 3 3 3 3 3 3 3 3 3 3 3 3 3 3 3 3 3 3 3 3 3 3 3 3 3 3 3 3 3 3 3 3 3 3 3 3 3 3 3 3 3 3 3 3 3 3 3 3 3 3 3 3 3 3 3 3 3 3 3 3 3 3 3 3 3 3 3 3 3 3 3 3 3 3 3 3 3 3 3 3 3 3 3 3 3 3 3 3 3 3 3 3 3 3 3 3 3 3 3 3 3 3 3 3 3 3 3 3 3 3 3 3 3 3 3 3 3 3 3 3 3 3 3 3 3 3 3 3 3 3 3 3 3 3 3 3 3 3 3 3 3 3 3 3 3 3 3 3 3 3 3 3 3 3 3 3 3 3 3 3 3 3 3 3 3 3 3 3 3 3 3 3 3 3 3 3 3 3 3 3 3 3 3 3 3 3 3 3 3 3 3 3 3 3 3 3 3 3 3 3 3 3 3 3 3 3 3 3 3 3 3 3 3 3 3 3 3 3 3 3 3 3 3 3 3 3 3 3 3 3 3 3 3 3 3 3 3 3 3 3 3 3 3 3 3 3 3 3 3 3 3 3 3 3 3 3 3 3 3 3 3 3 3 3 3 3 3 3 3 3 3 3 3 3 3 3 3 3 3 3 3 3 3 3 3 3 3 3 3 3 3 3 3 3 3 3 3 3 3 3 3 3 3 3 3 3 3 3 3 3 3 3 3 3 3 3 3 3 3 3 3 3 3 </DataArray>
</Cells>
<CellData  Scalars="f">
<DataArray  type="Float64"  Name="f"  format="ascii">0 1 0 0 0 0 0 0 0 0 0 0 0 0 0 0 0 0 0 0 0 0 0 0 0 0 0 0 0 0 0 0 0 0 0 0 2 0 1 0 0 0 0 0 0 0 0 0 0 0 0 0 0 0 0 0 0 0 0 0 0 0 0 0 0 0 0 0 0 0 0 0 0 2 0 1 0 0 0 0 0 0 0 0 0 0 0 0 0 0 0 0 0 0 0 0 0 0 0 0 0 0 0 0 0 0 0 0 0 0 2 0 1 0 0 0 0 0 0 0 0 0 0 0 0 0 0 0 0 0 0 0 0 0 0 0 0 0 0 0 0 0 0 0 0 0 0 2 0 1 0 0 0 0 0 0 0 0 0 0 0 0 0 0 0 0 0 0 0 0 0 0 0 0 0 0 0 0 0 0 0 0 0 0 2 0 1 0 0 0 0 0 0 0 0 0 0 0 0 0 0 0 0 0 0 0 0 0 0 0 0 0 0 0 0 0 0 0 0 0 0 2 0 1 0 0 0 0 0 0 0 0 0 0 0 0 0 0 0 0 0 0 0 0 0 0 0 0 0 0 0 0 0 0 0 0 0 0 2 0 1 0 0 0 0 0 0 0 0 0 0 0 0 0 0 0 0 0 0 0 0 0 0 0 0 0 0 0 0 0 0 0 0 0 0 2 0 1 0 0 0 0 0 0 0 0 0 0 0 0 0 0 0 0 0 0 0 0 0 0 0 0 0 0 0 0 0 0 0 0 0 0 2 0 1 0 0 0 0 0 0 0 0 0 0 0 0 0 0 0 0 0 0 0 0 0 0 0 0 0 0 0 0 0 0 0 0 0 0 2 0 1 0 0 0 0 0 0 0 0 0 0 0 0 0 0 0 0 0 0 0 0 0 0 0 0 0 0 0 0 0 0 0 0 0 0 2 0 1 0 0 0 0 0 0 0 0 0 0 0 0 0 0 0 0 0 0 0 0 0 0 0 0 0 0 0 0 0 0 0 0 0 0 2 0 0 0 0 0 0 0 0 0 0 0 0 </DataArray>
</CellData>
</Piece>
</UnstructuredGrid>
</VTKFile>