<?xml version="1.0"?>
<VTKFile type="UnstructuredGrid"  version="0.1"  >
<UnstructuredGrid>
<Piece  NumberOfPoints="649" NumberOfCells="2627">
<Points>
<DataArray  type="Float64"  NumberOfComponents="3"  format="ascii">0.5 0 0  0.5833333333333334 0 0  0.5833333333333334 0.08333333333333333 0  0.5833333333333334 0.08333333333333333 0.08333333333333333  0.5833333333333334 0 0.08333333333333333  0.5 0 0.08333333333333333  0.5 0.08333333333333333 0  0.5 0.08333333333333333 0.08333333333333333  0.6666666666666666 0 0  0.6666666666666666 0.08333333333333333 0  0.6666666666666666 0.08333333333333333 0.08333333333333333  0.6666666666666666 0 0.08333333333333333  0.75 0 0  0.75 0.08333333333333333 0  0.75 0.08333333333333333 0.08333333333333333  0.75 0 0.08333333333333333  0.8333333333333334 0 0  0.8333333333333334 0.08333333333333333 0  0.8333333333333334 0.08333333333333333 0.08333333333333333  0.8333333333333334 0 0.08333333333333333  0.9166666666666666 0 0  0.9166666666666666 0.08333333333333333 0  0.9166666666666666 0.08333333333333333 0.08333333333333333  0.9166666666666666 0 0.08333333333333333  1 0 0  1 0.08333333333333333 0  1 0.08333333333333333 0.08333333333333333  1 0 0.08333333333333333  0.5833333333333334 0.1666666666666667 0  0.5833333333333334 0.1666666666666667 0.08333333333333333  0.5 0.1666666666666667 0  0.5 0.1666666666666667 0.08333333333333333  0.6666666666666666 0.1666666666666667 0  0.6666666666666666 0.1666666666666667 0.08333333333333333  0.75 0.1666666666666667 0  0.75 0.1666666666666667 0.08333333333333333  0.8333333333333334 0.1666666666666667 0  0.8333333333333334 0.1666666666666667 0.08333333333333333  0.9166666666666666 0.1666666666666667 0  0.9166666666666666 0.1666666666666667 0.08333333333333333  1 0.1666666666666667 0  1 0.1666666666666667 0.08333333333333333  0.5833333333333334 0.25 0  0.5833333333333334 0.25 0.08333333333333333  0.5 0.25 0  0.5 0.25 0.08333333333333333  0.6666666666666666 0.25 0  0.6666666666666666 0.25 0.08333333333333333  0.75 0.25 0  0.75 0.25 0.08333333333333333  0.8333333333333334 0.25 0  0.8333333333333334 0.25 0.08333333333333333  0.9166666666666666 0.25 0  0.9166666666666666 0.25 0.08333333333333333  1 0.25 0  1 0.25 0.08333333333333333  0.5833333333333334 0.3333333333333333 0  0.5833333333333334 0.3333333333333333 0.08333333333333333  0.5 0.3333333333333333 0  0.5 0.3333333333333333 0.08333333333333333  0.6666666666666666 0.3333333333333333 0  0.6666666666666666 0.3333333333333333 0.08333333333333333  0.75 0.3333333333333333 0  0.75 0.3333333333333333 0.08333333333333333  0.8333333333333334 0.3333333333333333 0  0.8333333333333334 0.3333333333333333 0.08333333333333333  0.9166666666666666 0.3333333333333333 0  0.9166666666666666 0.3333333333333333 0.08333333333333333  1 0.3333333333333333 0  1 0.3333333333333333 0.08333333333333333  0.5833333333333334 0.4166666666666667 0  0.5833333333333334 0.4166666666666667 0.08333333333333333  0.5 0.4166666666666667 0  0.5 0.4166666666666667 0.08333333333333333  0.6666666666666666 0.4166666666666667 0  0.6666666666666666 0.4166666666666667 0.08333333333333333  0.75 0.4166666666666667 0  0.75 0.4166666666666667 0.08333333333333333  0.8333333333333334 0.4166666666666667 0  0.8333333333333334 0.4166666666666667 0.08333333333333333  0.9166666666666666 0.4166666666666667 0  0.9166666666666666 0.4166666666666667 0.08333333333333333  1 0.4166666666666667 0  1 0.4166666666666667 0.08333333333333333  0.5833333333333334 0.5 0  0.5833333333333334 0.5 0.08333333333333333  0.5 0.5 0  0.5 0.5 0.08333333333333333  0.6666666666666666 0.5 0  0.6666666666666666 0.5 0.08333333333333333  0.75 0.5 0  0.75 0.5 0.08333333333333333  0.8333333333333334 0.5 0  0.8333333333333334 0.5 0.08333333333333333  0.9166666666666666 0.5 0  0.9166666666666666 0.5 0.08333333333333333  1 0.5 0  1 0.5 0.08333333333333333  0.5833333333333334 0.5833333333333334 0  0.5833333333333334 0.5833333333333334 0.08333333333333333  0.5 0.5833333333333334 0  0.5 0.5833333333333334 0.08333333333333333  0.6666666666666666 0.5833333333333334 0  0.6666666666666666 0.5833333333333334 0.08333333333333333  0.75 0.5833333333333334 0  0.75 0.5833333333333334 0.08333333333333333  0.8333333333333334 0.5833333333333334 0  0.8333333333333334 0.5833333333333334 0.08333333333333333  0.9166666666666666 0.5833333333333334 0  0.9166666666666666 0.5833333333333334 0.08333333333333333  1 0.5833333333333334 0  1 0.5833333333333334 0.08333333333333333  0.5833333333333334 0.6666666666666666 0  0.5833333333333334 0.6666666666666666 0.08333333333333333  0.5 0.6666666666666666 0  0.5 0.6666666666666666 0.08333333333333333  0.6666666666666666 0.6666666666666666 0  0.6666666666666666 0.6666666666666666 0.08333333333333333  0.75 0.6666666666666666 0  0.75 0.6666666666666666 0.08333333333333333  0.8333333333333334 0.6666666666666666 0  0.8333333333333334 0.6666666666666666 0.08333333333333333  0.9166666666666666 0.6666666666666666 0  0.9166666666666666 0.6666666666666666 0.08333333333333333  1 0.6666666666666666 0  1 0.6666666666666666 0.08333333333333333  0.5833333333333334 0.75 0  0.5833333333333334 0.75 0.08333333333333333  0.5 0.75 0  0.5 0.75 0.08333333333333333  0.6666666666666666 0.75 0  0.6666666666666666 0.75 0.08333333333333333  0.75 0.75 0  0.75 0.75 0.08333333333333333  0.8333333333333334 0.75 0  0.8333333333333334 0.75 0.08333333333333333  0.9166666666666666 0.75 0  0.9166666666666666 0.75 0.08333333333333333  1 0.75 0  1 0.75 0.08333333333333333  0.5833333333333334 0.8333333333333334 0  0.5833333333333334 0.8333333333333334 0.08333333333333333  0.5 0.8333333333333334 0  0.5 0.8333333333333334 0.08333333333333333  0.6666666666666666 0.8333333333333334 0  0.6666666666666666 0.8333333333333334 0.08333333333333333  0.75 0.8333333333333334 0  0.75 0.8333333333333334 0.08333333333333333  0.8333333333333334 0.8333333333333334 0  0.8333333333333334 0.8333333333333334 0.08333333333333333  0.9166666666666666 0.8333333333333334 0  0.9166666666666666 0.8333333333333334 0.08333333333333333  1 0.8333333333333334 0  1 0.8333333333333334 0.08333333333333333  0.5833333333333334 0.9166666666666666 0  0.5833333333333334 0.9166666666666666 0.08333333333333333  0.5 0.9166666666666666 0  0.5 0.9166666666666666 0.08333333333333333  0.6666666666666666 0.9166666666666666 0  0.6666666666666666 0.9166666666666666 0.08333333333333333  0.75 0.9166666666666666 0  0.75 0.9166666666666666 0.08333333333333333  0.8333333333333334 0.9166666666666666 0  0.8333333333333334 0.9166666666666666 0.08333333333333333  0.9166666666666666 0.9166666666666666 0  0.9166666666666666 0.9166666666666666 0.08333333333333333  1 0.9166666666666666 0  1 0.9166666666666666 0.08333333333333333  0.5833333333333334 1 0  0.5833333333333334 1 0.08333333333333333  0.5 1 0  0.5 1 0.08333333333333333  0.6666666666666666 1 0  0.6666666666666666 1 0.08333333333333333  0.75 1 0  0.75 1 0.08333333333333333  0.8333333333333334 1 0  0.8333333333333334 1 0.08333333333333333  0.9166666666666666 1 0  0.9166666666666666 1 0.08333333333333333  1 1 0  1 1 0.08333333333333333  0.5833333333333334 0.08333333333333333 0.1666666666666667  0.5833333333333334 0 0.1666666666666667  0.5 0 0.1666666666666667  0.5 0.08333333333333333 0.1666666666666667  0.6666666666666666 0.08333333333333333 0.1666666666666667  0.6666666666666666 0 0.1666666666666667  0.75 0.08333333333333333 0.1666666666666667  0.75 0 0.1666666666666667  0.8333333333333334 0.08333333333333333 0.1666666666666667  0.8333333333333334 0 0.1666666666666667  0.9166666666666666 0.08333333333333333 0.1666666666666667  0.9166666666666666 0 0.1666666666666667  1 0.08333333333333333 0.1666666666666667  1 0 0.1666666666666667  0.5833333333333334 0.1666666666666667 0.1666666666666667  0.5 0.1666666666666667 0.1666666666666667  0.6666666666666666 0.1666666666666667 0.1666666666666667  0.75 0.1666666666666667 0.1666666666666667  0.8333333333333334 0.1666666666666667 0.1666666666666667  0.9166666666666666 0.1666666666666667 0.1666666666666667  1 0.1666666666666667 0.1666666666666667  0.5833333333333334 0.25 0.1666666666666667  0.5 0.25 0.1666666666666667  0.6666666666666666 0.25 0.1666666666666667  0.75 0.25 0.1666666666666667  0.8333333333333334 0.25 0.1666666666666667  0.9166666666666666 0.25 0.1666666666666667  1 0.25 0.1666666666666667  0.5833333333333334 0.3333333333333333 0.1666666666666667  0.5 0.3333333333333333 0.1666666666666667  0.6666666666666666 0.3333333333333333 0.1666666666666667  0.75 0.3333333333333333 0.1666666666666667  0.8333333333333334 0.3333333333333333 0.1666666666666667  0.9166666666666666 0.3333333333333333 0.1666666666666667  1 0.3333333333333333 0.1666666666666667  0.5833333333333334 0.4166666666666667 0.1666666666666667  0.5 0.4166666666666667 0.1666666666666667  0.6666666666666666 0.4166666666666667 0.1666666666666667  0.75 0.4166666666666667 0.1666666666666667  0.8333333333333334 0.4166666666666667 0.1666666666666667  0.9166666666666666 0.4166666666666667 0.1666666666666667  1 0.4166666666666667 0.1666666666666667  0.5833333333333334 0.5 0.1666666666666667  0.5 0.5 0.1666666666666667  0.6666666666666666 0.5 0.1666666666666667  0.75 0.5 0.1666666666666667  0.8333333333333334 0.5 0.1666666666666667  0.9166666666666666 0.5 0.1666666666666667  1 0.5 0.1666666666666667  0.5833333333333334 0.5833333333333334 0.1666666666666667  0.5 0.5833333333333334 0.1666666666666667  0.6666666666666666 0.5833333333333334 0.1666666666666667  0.75 0.5833333333333334 0.1666666666666667  0.8333333333333334 0.5833333333333334 0.1666666666666667  0.9166666666666666 0.5833333333333334 0.1666666666666667  1 0.5833333333333334 0.1666666666666667  0.5833333333333334 0.6666666666666666 0.1666666666666667  0.5 0.6666666666666666 0.1666666666666667  0.6666666666666666 0.6666666666666666 0.1666666666666667  0.75 0.6666666666666666 0.1666666666666667  0.8333333333333334 0.6666666666666666 0.1666666666666667  0.9166666666666666 0.6666666666666666 0.1666666666666667  1 0.6666666666666666 0.1666666666666667  0.58333333333333
[...]
<PointData  Vectors="f_35"> 
<DataArray  type="Float64"  Name="f_35"  NumberOfComponents="3" format="ascii">5.7960120774823536e-02 3.1323193266606715e-02 3.1323193266606666e-02  6.7481294760749808e-02 3.1852725475567743e-02 3.1852725475567757e-02  6.6843256544111079e-02 2.7013119110672432e-02 3.1908281995213554e-02  6.6268949195989579e-02 2.6992958842821383e-02 2.6992958842821404e-02  6.6843256544111079e-02 3.1908281995213596e-02 2.7013119110672439e-02  5.7037905253890339e-02 3.1419617062452353e-02 2.6670419478874975e-02  5.7037905253890284e-02 2.6670419478875006e-02 3.1419617062452380e-02  5.6193321611962131e-02 2.6646607652828266e-02 2.6646607652828270e-02  7.7429184214624761e-02 3.2184099565072781e-02 3.2184099565072781e-02  7.6966896791713632e-02 2.7180398464955190e-02 3.2211049248621088e-02  7.6556892281477787e-02 2.7165950314024294e-02 2.7165950314024294e-02  7.6966896791713660e-02 3.2211049248621088e-02 2.7180398464955190e-02  8.7733102097760890e-02 3.2417206298549071e-02 3.2417206298549071e-02  8.7364180511369849e-02 2.7277551553362100e-02 3.2423856439454488e-02  8.7038871900029055e-02 2.7269718132741962e-02 2.7269718132741941e-02  8.7364180511369752e-02 3.2423856439454481e-02 2.7277551553362124e-02  9.8314926660880819e-02 3.2627441209962187e-02 3.2627441209962187e-02  9.7982211057528870e-02 2.7382332738816555e-02 3.2620681456224362e-02  9.7685582167148899e-02 2.7381497485937403e-02 2.7381497485937427e-02  9.7982211057528829e-02 3.2620681456224355e-02 2.7382332738816541e-02  1.0909767233200961e-01 3.2868600714651232e-02 3.2868600714651280e-02  1.0876471776032108e-01 2.7552350332572154e-02 3.2857585801737643e-02  1.0846075310860902e-01 2.7560184981562451e-02 2.7560184981562461e-02  1.0876471776032109e-01 3.2857585801737622e-02 2.7552350332572199e-02  1.1995134133743589e-01 3.3174838492948625e-02 3.3174838492948729e-02  1.1961852484227327e-01 2.7850784520653885e-02 3.3157397430338451e-02  1.1930305264445257e-01 2.7846676436873066e-02 2.7846676436873094e-02  1.1961852484227319e-01 3.3157397430338395e-02 2.7850784520653964e-02  6.5972328784456011e-02 2.2004524489095133e-02 3.2120043218178018e-02  6.5453668645161125e-02 2.1910786351743244e-02 2.7165464041675629e-02  5.5893182851610913e-02 2.1774751522082809e-02 3.1757076080923513e-02  5.5111008007724886e-02 2.1639373058026958e-02 2.6925620175253490e-02  7.6292999597012745e-02 2.2067545886019137e-02 3.2328851302557436e-02  7.5930830931075097e-02 2.2010446559098406e-02 2.7260914267910830e-02  8.6819593564792366e-02 2.2073126228895120e-02 3.2471086497500121e-02  8.6535683204009298e-02 2.2047602013612319e-02 2.7308449136455016e-02  9.7513494715291263e-02 2.2099177392952415e-02 3.2614951779728132e-02  9.7254619371305001e-02 2.2101202448401473e-02 2.7379573882346409e-02  1.0833273413205913e-01 2.2208878310478495e-02 3.2808068568711178e-02  1.0806880248778714e-01 2.2235412396170082e-02 2.7525293723724861e-02  1.1920885375120185e-01 2.2503551536516168e-02 3.3067797397890293e-02  1.1893467487076366e-01 2.2520748893358828e-02 2.7779286811483055e-02  6.5061422823136580e-02 1.6789688525091301e-02 3.2410037680021701e-02  6.4608351305176781e-02 1.6658848026449978e-02 2.7435976287112418e-02  5.4770275069897227e-02 1.6618812003573007e-02 3.2196786400782787e-02  5.4059007024778671e-02 1.6431910268770188e-02 2.7336522822392104e-02  7.5555942863636469e-02 1.6805630405424789e-02 3.2498692573528824e-02  7.5251464968481521e-02 1.6725098171925093e-02 2.7419711072508336e-02  8.6208625774088665e-02 1.6769706188937687e-02 3.2545443294987826e-02  8.5975715094644814e-02 1.6732807115429658e-02 2.7380079693456662e-02  9.6982800910510814e-02 1.6754208828834834e-02 3.2611277029139775e-02  9.6771741962805607e-02 1.6755814994225727e-02 2.7382187973286724e-02  1.0784287295854406e-01 1.6826034222227653e-02 3.2732721039168002e-02  1.0763055740289870e-01 1.6860101788098596e-02 2.7469837054484292e-02  1.1874627734069462e-01 1.7097119023878657e-02 3.2923066579680776e-02  1.1853206468575224e-01 1.7130205423485076e-02 2.7671832866421206e-02  6.4285373734183957e-02 1.1401240884716987e-02 3.2685412294211402e-02  6.3891900717759506e-02 1.1282941137941854e-02 2.7702945706079583e-02  5.3860531103284294e-02 1.1272813368261046e-02 3.2599216813143254e-02  5.3211432717031333e-02 1.1107195759975385e-02 2.7726729714149596e-02  7.4904905978140673e-02 1.1406803418924446e-02 3.2665150272911218e-02  7.4654255334143146e-02 1.1332721157116882e-02 2.7581936634728341e-02  8.5655042279561583e-02 1.1370264173120873e-02 3.2620783313665740e-02  8.5470777607604645e-02 1.1335423763187493e-02 2.7456250389271294e-02  9.6493193965799681e-02 1.1348294621716959e-02 3.2608172853858704e-02  9.6328665328195812e-02 1.1349005900307366e-02 2.7387076090121691e-02  1.0738702083595483e-01 1.1400294318157474e-02 3.2655117403328826e-02  1.0722487756425271e-01 1.1429610201720323e-02 2.7413751378173232e-02  1.1831557970975505e-01 1.1614226739963726e-02 3.2773418145784002e-02  1.1816091764167932e-01 1.1650286738254608e-02 2.7563633665936896e-02  6.3764774449611608e-02 5.8995846326900820e-03 3.2876549235330788e-02  6.3412412758694317e-02 5.8309339055940589e-03 2.7890708924895268e-02  5.3271961425755222e-02 5.8204859466424834e-03 3.2872446481236266e-02  5.2664199666080068e-02 5.7259724208124415e-03 2.7994932389249039e-02  7.4455940506661433e-02 5.9112818348308754e-03 3.2782636864323110e-02  7.4243259628338484e-02 5.8675714032162887e-03 2.7698168113132367e-02  8.5265176059245204e-02 5.8999064681390535e-03 3.2674446221066522e-02  8.5115766082566685e-02 5.8786816318813599e-03 2.7511639280342982e-02  9.6142983016353392e-02 5.8959962815141025e-03 3.2605050327917849e-02  9.6012199657573197e-02 5.8958827285224332e-03 2.7390606577260307e-02  1.0705900285994130e-01 5.9374698512900011e-03 3.2597596352316197e-02  1.0693276150433045e-01 5.9525149751651707e-03 2.7372651888740256e-02  1.1800471308780902e-01 6.0620442735818672e-03 3.2663131837277641e-02  1.1789347974244302e-01 6.0885711880673083e-03 2.7484632482703608e-02  6.3566430430132825e-02 3.4484605378436986e-04 3.2944162745024076e-02  6.3228880793853526e-02 3.4431066407351337e-04 2.7957371335114872e-02  5.3053315677984450e-02 3.2462829575299114e-04 3.2968964408543661e-02  5.2459976958329504e-02 3.2452477681895554e-04 2.8089921233428242e-02  7.4280678144296439e-02 3.6748363069959443e-04 3.2823957012291301e-02  7.4081916791144536e-02 3.6664493763238011e-04 2.7739300686040531e-02  8.5109662432927669e-02 3.9274725182497557e-04 3.2692743952708200e-02  8.4973130773722649e-02 3.9148505651157825e-04 2.7530786059007349e-02  9.6000829979306840e-02 4.1881155661572844e-04 3.2602422256807456e-02  9.5882640312573958e-02 4.1800849654102622e-04 2.7390695626318455e-02  1.0692549078293645e-01 4.5224480995392053e-04 3.2575327943685076e-02  1.0681200704507227e-01 4.4834313808683648e-04 2.7356471766922841e-02  1.1787632616516512e-01 4.6915636269399976e-04 3.2621092406176715e-02  1.1778187419950260e-01 4.7797991612550316e-04 2.7454111001108571e-02  6.3711518185461863e-02 -5.2090008198528021e-03 3.2875846044476617e-02  6.3360163202525688e-02 -5.1420174786119856e-03 2.7889852630579411e-02  5.3218000590725095e-02 -5.1694903760624343e-03 3.2874372083444334e-02  5.2610919924118427e-02 -5.0763121908060259e-03 2.7996358394971468e-02  7.4403302259265197e-02 -5.1760126397237330e-03 3.2780376552784471e-02  7.4191662069043707e-02 -5.1341704880454994e-03 2.7696031171488875e-02  8.5213230593611244e-02 -5.1147533587563160e-03 3.2671375707090472e-02  8.5064714394684826e-02 -5.0958796214567881e-03 2.7508756240643386e-02  9.6091263917469069e-02 -5.0589241949922249e-03 3.2600877039153049e-02  9.5961522359412368e-02 -5.0602439341336028e-03 2.7386898280876926e-02  1.0701033158874836e-01 -5.0352809399415452e-03 3.2593823853835781e-02  1.0688338977877472e-01 -5.0571744304091530e-03 2.7368776541632077e-02  1.1795302026249439e-01 -5.1238160941943223e-03 3.2657608704774285e-02  1.1784472916549275e-01 -5.1349005394971357e-03 2.7478878892774089e-02  6.4179794143994329e-02 -1.0708662603213378e-02 3.2683764845298703e-02  6.3788719640004821e-02 -1.0593083645264007e-02 2.7701351407352033e-02  5.3752872380016962e-02 -1.0617546569690295e-02 3.2602495376168883e-02  5.3106125742709995e-02 -1.0455791168167942e-02 2.7729525029968675e-02  7.4800725404130408e-02 -1.0670956963852007e-02 3.2660698895945729e-02  7.4552228426514669e-02 -1.0598840224573729e-02 2.7577928853999099e-02  8.5551966725981823e-02 -1.0586127964811990e-02 3.2614877145719270e-02  8.5369486424426502e-02 -1.0552914549849893e-02 2.7450836851916433e-02  9.6390152059671663e-02 -1.0512711444912618e-02 3.2600407105656634e-02  9.6227729407467072e-02 -1.0514272731281827e-02 2.7380176288561493e-02  1.0728938886164571e-01 -1.0504548461634488e-02 3.2648073046811756e-02  1.0712620757245971e-01 -1.0537943432149413e-02 2.7406413837499644e-02  1.1821256530756832e-01 -1.0675664347991946e-02 3.2763414444822912e-02  1.1806301577090829e-01 -1.0702490790029445e-02 2.7552767575107693e-02  6.4905953697094246e-02 -1.6095468661959256e-02 3.2406972140244628e-02  6.4457384585239086e-02 -1.5966922138267652e-02 2.7433619919611716e-02  5.4610828479944716e-02 -1.5959460227673854e-02 3.2200196811950917e-02  5.3905093152234317e-02 -1.5777409161001031e-02 2.7340361604701963e-02  7.5402041281737359e-02 -1.6069295873723983e-02 3.2492337818246467e-02  7.5101293380295836e-02 -1.5989737498006765e-02 2.7414252858194113e-02  8.6054979770202558e-02 -1.5986738405440067e-02 3.2537504644953467e-02  8.5825293759738297e-02 -1.5949920795481555e-02 2.7372908140995071e-02  9.6828178637002535e-02 -1.5920366631037696e-02 3.2601514109530320e-02  9.6620708087135604e-02 -1.5921784688462153e-02 2.7373316611963325e-02  1.0769442943625170e-01 -1.5939332336792345e-02 3.2723270262926499e-02  1.0748184658789810e-01 -1.5973415410860427e-02 2.7459833205910250e-02  1.1859163850101483e-01 -1.6156423887824012e-02 3.2910077523134053e-02  1.1838366304064692e-01 -1.6189186262945195e-02 2.7657019497268509e-02  6.5771909971451603e-02 -2.1311374809328796e-02 3.2113481702800886e-02  6.5261135512212270e-02 -2.1214673247081050e-02 2.7160602756384003e-02  5.5687962632783451e-02 -2.1117455711360273e-02 3.1756911645522919e-02  5.4917574890032392e-02 -2.0980064203437922e-02 2.6926737367054473e-02  7.6092339829436056e-02 -2.1331399432037740e-02 3.2319954997837234e-02  7.5735756310744085e-02 -2.1271574703344811e-02 2.7253742188049802e-02  8.6616745116202543e-02 -2.1290699477588607e-02 3.2461444951918876e-02  8.6337173798996178e-02 -2.1262577276482064e-02 2.7300237296460042e-02  9.7307755378096092e-02 -2.1266044960440770e-02 3.2604365513875626e-02  9.7053048589548829e-02 -2.1266791234137564e-02 2.7370028018235178e-02  1.0812909118685966e-01 -2.1329948879485035e-02 3.2796120749770862e-02  1.0786689311557633e-01 -2.1353210831880545e-02 2.7513388352161217e-02  1.1899934029076771e-01 -2.1558497444196592e-02 3.3053281129047020e-02  1.1873211422436554e-01 -2.1584186489906294e-02 2.7762369381266767e-02  6.6604814587539987e-02 -2.6314600215627072e-02 3.1898317903738573e-02  6.6038853805835462e-02 -2.6292268629803720e-02 2.6986149360687123e-02  5.6807688281856575e-02 -2.6010570431324924e-02 3.1408888396937999e-02  5.5978287542289923e-02 -2.5984739891278908e-02 2.6642539631359909e-02  7.6718420585906000e-02 -2.6438581870515249e-02 3.2203314149831859e-02  7.6313960727080812e-02 -2.6422398402319441e-02 2.7159395414778416e-02  8.7106281476562297e-02 -2.6490395225573244e-02 3.2418037867533056e-02  8.6785929577837456e-02 -2.6480898282884295e-02 2.7263879007449813e-02  9.7716274222533886e-02 -2.6546677190507791e-02 3.2615326495792553e-02  9.7424908926286552e-02 -2.6545299606260900e-02 2.7375679663503332e-02  1.0849309885839416e-01 -2.6675298674202531e-02 3.2847527866028847e-02  1.0819563607199278e-01 -2.6679344482174239e-02 2.7551262136307687e-02  1.1934617561753005e-01 -2.6905925634279869e-02 3.3145431695735826e-02  1.1903864804327285e-01 -2.6911663283009615e-02 2.7834539272746685e-02  6.7162217640920757e-02 -3.1160844092301368e-02 3.1830799899745028e-02  6.6582524372437696e-02 -3.1198521673578058e-02 2.7004388552763114e-02  5.7655327680402470e-02 -3.0677097502524772e-02 3.1295592118607572e-02  5.6814810060541815e-02 -3.0744413880423083e-02 2.6658811754043023e-02  7.7098249589859447e-02 -3.1445302690571442e-02 3.2167593736713129e-02  7.6681187334353321e-02 -3.1461772109717102e-02 2.7174968943132861e-02  8.7393993800834277e-02 -3.1631131502594022e-02 3.2404997774331368e-02  8.7061937726576985e-02 -3.1632107686189036e-02 2.7274477486995779e-02  9.7975243764315822e-02 -3.1792379749770644e-02 3.2617470443492183e-02  9.7669589599094067e-02 -3.1783006203492989e-02 2.7379340326865852e-02  1.0875606024491950e-01 -3.1986886173017613e-02 3.2858186904471537e-02  1.0844007566938377e-01 -3.1971700367470088e-02 2.7549054035074062e-02  1.1961792479791425e-01 -3.2232127814459527e-02 3.3161440395367135e-02  1.1929058148832561e-01 -3.2219542253413370e-02 2.7834737116263001e-02  6.5453668645161167e-02 2.7165464041675618e-02 2.1910786351743206e-02  6.5972328784455900e-02 3.2120043218178025e-02 2.2004524489095106e-02  5.5893182851610893e-02 3.1757076080923485e-02 2.1774751522082806e-02  5.5111008007724824e-02 2.6925620175253493e-02 2.1639373058026955e-02  7.5930830931075097e-02 2.7260914267910819e-02 2.2010446559098402e-02  7.6292999597012634e-02 3.2328851302557415e-02 2.2067545886019162e-02  8.6535683204009312e-02 2.7308449136454999e-02 2.2047602013612333e-02  8.6819593564792394e-02 3.2471086497500114e-02 2.2073126228895117e-02  9.7254619371305084e-02 2.7379573882346395e-02 2.2101202448401455e-02  9.7513494715291235e-02 3.2614951779728139e-02 2.2099177392952432e-02  1.0806880248778726e-01 2.7525293723724802e-02 2.2235412396170169e-02  1.0833273413205899e-01 3.2808068568711143e-02 2.2208878310478502e-02  1.1893467487076366e-01 2.7779286811483010e-02 2.2520748893358845e-02  1.1920885375120177e-01 3.3067797397890251e-02 2.2503551536516224e-02  6.4647772038193205e-02 2.2037636474731066e-02 2.2037636474731059e-02  5.4024177246405646e-02 2.1842663614235820e-02 2.1842663614235786e-02  7.5321347412298192e-02 2.2081651580915036e-02 2.2081651580915022e-02  8.6053498049983509e-02 2.2079123153545287e-02 2.2079123153545297e-02  9.6849585177455969e-02 2.2104521822790161e-02 2.2104521822790189e-02  1.0770914909821613e-01 2.2213661104717633e-02 2.2213661104717612e-02  1.1860757749960640e-01 2.2468516625225775e-02 2.2468516625225823e-02  6.3797938672914084e-02 1.6742400900643876e-02 2.2262101919310922e-02  5.2952660194842391e-02 1.6563126573612079e-02 2.2178260462827625e-02  7.4647372471611781e-02 1.6773334861734445e-02 2.2215895018250036e-02  8.5506018704412393e-02 1.6756063186654978e-02 2.2142648447224182e-02  9.6385801918228986e-02 1.6761171362244712e-02 2.2112415769595613e-02  1.0729757557741222e-01 1.6847365887492617e-02 2.2175411693694337e-02  1.1824311220017553e-01 1.7090001835478090e-02 2.2392722128098525e-02  6.3073978837005995e-02 1.1330402774084409e-02 2.2490376406892033e-02  5.2087044164296596e-02 1.1180142036024465e-02 2.2508708009532585e-02  7.4050818261360424e-02 1.1360888569363263e-02 2.2356405908632387e-02  8.5008075081003123e-02 1.1349953765688014e-02 2.2211204700415852e-02  9.5955591161253809e-02 1.1353382832210483e-02 2.2122514965915465e-02  1.0691169354492105e-01 1.1422451092189432e-02 2.2138012584737507e-02  1.1790222736267149e-01 1.1621597219879130e-02 2.2322136243935448e-02  6.2590285052695691e-02 5.8531360434786114e-03 2.2653295943976550e-02  5.1530284142208144e-02 5.7594140898061391e-03 2.2739828383139645e-02  7.3640168563073566e-02 5.8809887054372496e-03 2.2458356285193593e-02  8.4657236005507855e-02 5.8857895363514327e-03 2.2261652095613621e-02  9.5646974261241871e-02 5.8978332995512535e-03 2.2130235624624881e-02  1.0663208776888233e-01 5.9486767692277318e-03 2.2111387298470869e-02  1.1765437827718074e-01 6.0717127613255052e-03 2.2272641484663663e-02  6.2404666115937521e-02 3.4872861457870897e-04 2.2711143594514167e-02  5.1322231667756728e-02 3.3077128707298381e-04 2.2821800645711772e-02  7.3478350334837711e-02 3.6923228345019853e-04 2.2494383124521743e-02  8.4515525438220232e-02 3.9251590901572838e-04 2.2279059222065859e-02  9.5519583472606431e-02 4.1721797617809084e-04 2.2132001360607147e-02  1.0651523356060207e-01 4.4685243308253801e-04 2.2100882423579160e-02  1.1754890803736061e-01 4.7356997830678938e-04 2.2254025357187648e-02  6.2535335901590133e-02 -5.1561490329686552e-03 2.2651169369810140e-02  5.1473811021550610e-02 -5.0980857227482142e-03 2.2739140988247395e-02  7.3586475100451174e-02 -5.1429859002584712e-03 2.2455502726613352e-02  8.4604619893776059e-02 -5.1012659721044098e-03 2.2258480019090449e-02  9.5594837884481101e-02 -5.0637578781716260e-03 2.2126675292940323e-02  1.0658158024623997e-01 -5.0562445830680085e-03 2.2108286211451434e-02  1.1760372097084755e-01 -5.1263613430316242e-03 2.2269499637536758e-02  6.2965957738136125e-02 -1.0635010560029256e-02 2.2486122348409750e-02  5.1975669527500060e-02 -1.0519909283371419e-02 2.2507120652596972e-02  7.3945263881377260e-02 -1.0624288953751336e-02 2.2350884485269538e-02  8.4904402406333179e-02 -1.0566881229523425e-02 2.2205175228066362e-02  9.5852628043842078e-02 -1.0520307538853992e-02 2.2115821948521984e-02  1.0681165497424318e-01 -1.0533571068852037e-02 2.2131953271084786e-02  1.1780158624220505e-01 -1.0680732216245796e-02 2.2315652132509991e-02  6.3641510606969348e-02 -1.6050343376613638e-02 2.2256078562381036e-02  5.2790786814289989e-02 -1.5906609156466019e-02 2.2175712170783419e-02  7.4493841929181639e-02 -1.6038986016845821e-02 2.2208478773096622e-02  8.5353905000744676e-02 -1.5974884601012214e-02 2.2134794046444514e-02  9.6233775937642277e-02 -1.5929343300643165e-02 2.2103875535823631e-02  1.0714898164821653e-01 -1.5963599636393117e-02 2.2166856157519198e-02  1.1809334241421207e-01 -1.6154003672974020e-02 2.2382592481990322e-02  6.4455643864338552e-02 -2.1350179668242888e-02 2.2031218264264615e-02  5.3829036067233611e-02 -2.1194352627638219e-02 2.1838874507444431e-02  7.5127852323837660e-02 -2.1349208976895875e-02 2.2074348402858473e-02  8.5857550613785305e-02 -2.1298908772768257e-02 2.2071587195300748e-02  9.6651231431056028e-02 -2.1273449564712114e-02 2.2096156094605954e-02  1.0751177305766609e-01 -2.1334962858117645e-02 2.2203107299101684e-02  1.1840891222197875e-01 -2.1534798874873737e-02 2.2454168354028539e-02  6.5236608182103389e-02 -2.6475917913239090e-02 2.1912448439562568e-02  5.4912206515334544e-02 -2.6280515566828252e-02 2.1645733869580446e-02  7.5698290495523193e-02 -2.6524692723307930e-02 2.2010135097229887e-02  8.6291574733411230e-02 -2.6524598422099331e-02 2.2046323531022868e-02  9.7002277230294434e-02 -2.6546616182823814e-02 2.2099104577826337e-02  1.0781258136081884e-01 -2.6647961212120035e-02 2.2228808270085713e-02  1.1867966087061674e-01 -2.6846307665702323e-02 2.2507622280155466e-02  6.5724445236881313e-02 -3.1423682455310478e-02 2.2014979427460980e-02  5.5688322799200274e-02 -3.1104262210841303e-02 2.1791065062121622e-02  7.6016776853554874e-02 -3.1587701140264934e-02 2.2074582863995787e-02  8.6525207154437914e-02 -3.1684307240100566e-02 2.2078240455658569e-02  9.7208382827187620e-02 -3.1779805232668462e-02 2.2102323263324043e-02  1.0801962041744680e-01 -3.1925973312785724e-02 2.2209266367165189e-02  1.1889358284214729e-01 -3.2136908884276609e-02 2.2483340894570051e-02  6.4608351305176767e-02 2.7435976287112404e-02 1.6658848026449975e-02  6.5061422823136580e-02 3.2410037680021687e-02 1.6789688525091280e-02  5.4770275069897172e-02 3.2196786400782829e-02 1.6618812003572993e-02  5.4059007024778671e-02 2.7336522822392028e-02 1.6431910268770170e-02  7.5251464968481535e-02 2.7419711072508353e-02 1.6725098171925110e-02  7.5555942863636552e-02 3.2498692573528790e-02 1.6805630405424751e-02  8.5975715094644911e-02 2.7380079693456624e-02 1.6732807115429661e-02  8.6208625774088610e-02 3.2545443294987812e-02 1.6769706188937770e-02  9.6771741962805524e-02 2.7382187973286693e-02 1.6755814994225713e-02  9.6982800910510841e-02 3.2