<?xml version="1.0"?>
<VTKFile type="UnstructuredGrid"  version="0.1"  >
<UnstructuredGrid>
<Piece  NumberOfPoints="2197" NumberOfCells="10368">
<Points>
<DataArray  type="Float64"  NumberOfComponents="3"  format="ascii">0 0 0  0.08333333333333333 0 0  0.1666666666666667 0 0  0.25 0 0  0.3333333333333333 0 0  0.4166666666666667 0 0  0.5 0 0  0.5833333333333334 0 0  0.6666666666666666 0 0  0.75 0 0  0.8333333333333334 0 0  0.9166666666666666 0 0  1 0 0  0 0.08333333333333333 0  0.08333333333333333 0.08333333333333333 0  0.1666666666666667 0.08333333333333333 0  0.25 0.08333333333333333 0  0.3333333333333333 0.08333333333333333 0  0.4166666666666667 0.08333333333333333 0  0.5 0.08333333333333333 0  0.5833333333333334 0.08333333333333333 0  0.6666666666666666 0.08333333333333333 0  0.75 0.08333333333333333 0  0.8333333333333334 0.08333333333333333 0  0.9166666666666666 0.08333333333333333 0  1 0.08333333333333333 0  0 0.1666666666666667 0  0.08333333333333333 0.1666666666666667 0  0.1666666666666667 0.1666666666666667 0  0.25 0.1666666666666667 0  0.3333333333333333 0.1666666666666667 0  0.4166666666666667 0.1666666666666667 0  0.5 0.1666666666666667 0  0.5833333333333334 0.1666666666666667 0  0.6666666666666666 0.1666666666666667 0  0.75 0.1666666666666667 0  0.8333333333333334 0.1666666666666667 0  0.9166666666666666 0.1666666666666667 0  1 0.1666666666666667 0  0 0.25 0  0.08333333333333333 0.25 0  0.1666666666666667 0.25 0  0.25 0.25 0  0.3333333333333333 0.25 0  0.4166666666666667 0.25 0  0.5 0.25 0  0.5833333333333334 0.25 0  0.6666666666666666 0.25 0  0.75 0.25 0  0.8333333333333334 0.25 0  0.9166666666666666 0.25 0  1 0.25 0  0 0.3333333333333333 0  0.08333333333333333 0.3333333333333333 0  0.1666666666666667 0.3333333333333333 0  0.25 0.3333333333333333 0  0.3333333333333333 0.3333333333333333 0  0.4166666666666667 0.3333333333333333 0  0.5 0.3333333333333333 0  0.5833333333333334 0.3333333333333333 0  0.6666666666666666 0.3333333333333333 0  0.75 0.3333333333333333 0  0.8333333333333334 0.3333333333333333 0  0.9166666666666666 0.3333333333333333 0  1 0.3333333333333333 0  0 0.4166666666666667 0  0.08333333333333333 0.4166666666666667 0  0.1666666666666667 0.4166666666666667 0  0.25 0.4166666666666667 0  0.3333333333333333 0.4166666666666667 0  0.4166666666666667 0.4166666666666667 0  0.5 0.4166666666666667 0  0.5833333333333334 0.4166666666666667 0  0.6666666666666666 0.4166666666666667 0  0.75 0.4166666666666667 0  0.8333333333333334 0.4166666666666667 0  0.9166666666666666 0.4166666666666667 0  1 0.4166666666666667 0  0 0.5 0  0.08333333333333333 0.5 0  0.1666666666666667 0.5 0  0.25 0.5 0  0.3333333333333333 0.5 0  0.4166666666666667 0.5 0  0.5 0.5 0  0.5833333333333334 0.5 0  0.6666666666666666 0.5 0  0.75 0.5 0  0.8333333333333334 0.5 0  0.9166666666666666 0.5 0  1 0.5 0  0 0.5833333333333334 0  0.08333333333333333 0.5833333333333334 0  0.1666666666666667 0.5833333333333334 0  0.25 0.5833333333333334 0  0.3333333333333333 0.5833333333333334 0  0.4166666666666667 0.5833333333333334 0  0.5 0.5833333333333334 0  0.5833333333333334 0.5833333333333334 0  0.6666666666666666 0.5833333333333334 0  0.75 0.5833333333333334 0  0.8333333333333334 0.5833333333333334 0  0.9166666666666666 0.5833333333333334 0  1 0.5833333333333334 0  0 0.6666666666666666 0  0.08333333333333333 0.6666666666666666 0  0.1666666666666667 0.6666666666666666 0  0.25 0.6666666666666666 0  0.3333333333333333 0.6666666666666666 0  0.4166666666666667 0.6666666666666666 0  0.5 0.6666666666666666 0  0.5833333333333334 0.6666666666666666 0  0.6666666666666666 0.6666666666666666 0  0.75 0.6666666666666666 0  0.8333333333333334 0.6666666666666666 0  0.9166666666666666 0.6666666666666666 0  1 0.6666666666666666 0  0 0.75 0  0.08333333333333333 0.75 0  0.1666666666666667 0.75 0  0.25 0.75 0  0.3333333333333333 0.75 0  0.4166666666666667 0.75 0  0.5 0.75 0  0.5833333333333334 0.75 0  0.6666666666666666 0.75 0  0.75 0.75 0  0.8333333333333334 0.75 0  0.9166666666666666 0.75 0  1 0.75 0  0 0.8333333333333334 0  0.08333333333333333 0.8333333333333334 0  0.1666666666666667 0.8333333333333334 0  0.25 0.8333333333333334 0  0.3333333333333333 0.8333333333333334 0  0.4166666666666667 0.8333333333333334 0  0.5 0.8333333333333334 0  0.5833333333333334 0.8333333333333334 0  0.6666666666666666 0.8333333333333334 0  0.75 0.8333333333333334 0  0.8333333333333334 0.8333333333333334 0  0.9166666666666666 0.8333333333333334 0  1 0.8333333333333334 0  0 0.9166666666666666 0  0.08333333333333333 0.9166666666666666 0  0.1666666666666667 0.9166666666666666 0  0.25 0.9166666666666666 0  0.3333333333333333 0.9166666666666666 0  0.4166666666666667 0.9166666666666666 0  0.5 0.9166666666666666 0  0.5833333333333334 0.9166666666666666 0  0.6666666666666666 0.9166666666666666 0  0.75 0.9166666666666666 0  0.8333333333333334 0.9166666666666666 0  0.9166666666666666 0.9166666666666666 0  1 0.9166666666666666 0  0 1 0  0.08333333333333333 1 0  0.1666666666666667 1 0  0.25 1 0  0.3333333333333333 1 0  0.4166666666666667 1 0  0.5 1 0  0.5833333333333334 1 0  0.6666666666666666 1 0  0.75 1 0  0.8333333333333334 1 0  0.9166666666666666 1 0  1 1 0  0 0 0.08333333333333333  0.08333333333333333 0 0.08333333333333333  0.1666666666666667 0 0.08333333333333333  0.25 0 0.08333333333333333  0.3333333333333333 0 0.08333333333333333  0.4166666666666667 0 0.08333333333333333  0.5 0 0.08333333333333333  0.5833333333333334 0 0.08333333333333333  0.6666666666666666 0 0.08333333333333333  0.75 0 0.08333333333333333  0.8333333333333334 0 0.08333333333333333  0.9166666666666666 0 0.08333333333333333  1 0 0.08333333333333333  0 0.08333333333333333 0.08333333333333333  0.08333333333333333 0.08333333333333333 0.08333333333333333  0.1666666666666667 0.08333333333333333 0.08333333333333333  0.25 0.08333333333333333 0.08333333333333333  0.3333333333333333 0.08333333333333333 0.08333333333333333  0.4166666666666667 0.08333333333333333 0.08333333333333333  0.5 0.08333333333333333 0.08333333333333333  0.5833333333333334 0.08333333333333333 0.08333333333333333  0.6666666666666666 0.08333333333333333 0.08333333333333333  0.75 0.08333333333333333 0.08333333333333333  0.8333333333333334 0.08333333333333333 0.08333333333333333  0.9166666666666666 0.08333333333333333 0.08333333333333333  1 0.08333333333333333 0.08333333333333333  0 0.1666666666666667 0.08333333333333333  0.08333333333333333 0.1666666666666667 0.08333333333333333  0.1666666666666667 0.1666666666666667 0.08333333333333333  0.25 0.1666666666666667 0.08333333333333333  0.3333333333333333 0.1666666666666667 0.08333333333333333  0.4166666666666667 0.1666666666666667 0.08333333333333333  0.5 0.1666666666666667 0.08333333333333333  0.5833333333333334 0.1666666666666667 0.08333333333333333  0.6666666666666666 0.1666666666666667 0.08333333333333333  0.75 0.1666666666666667 0.08333333333333333  0.8333333333333334 0.1666666666666667 0.08333333333333333  0.9166666666666666 0.1666666666666667 0.08333333333333333  1 0.1666666666666667 0.08333333333333333  0 0.25 0.08333333333333333  0.08333333333333333 0.25 0.08333333333333333  0.1666666666666667 0.25 0.08333333333333333  0.25 0.25 0.08333333333333333  0.3333333333333333 0.25 0.08333333333333333  0.4166666666666667 0.25 0.08333333333333333  0.5 0.25 0.08333333333333333  0.5833333333333334 0.25 0.08333333333333333  0.6666666666666666 0.25 0.08333333333333333  0.75 0.25 0.08333333333333333  0.8333333333333334 0.25 0.08333333333333333  0.9166666666666666 0.25 0.08333333333333333  1 0.25 0.08333333333333333  0 0.3333333333333333 0.08333333333333333  0.08333333333333333 0.3333333333333333 0.08333333333333333  0.1666666666666667 0.3333333333333333 0.08333333333333333  0.25 0.3333333333333333 0.08333333333333333  0.3333333333333333 0.3333333333333333 0.08333333333333333  0.4166666666666667 0.3333333333333333 0.08333333333333333  0.5 0.3333333333333333 0.08333333333333333  0.5833333333333334 0.3333333333333333 0.08333333333333333  0.6666666666666666 0.3333333333333333 0.08333333333333333  0.75 0.3333333333333333 0.08333333333333333  0.8333333333333334 0.3333333333333333 0.08333333333333333  0.9166666666666666 0.3333333333333333 0.08333333333333333  1 0.3333333333333333 0.08333333333333333  0 0.4166666666666667 0.08333333333333333  0.08333333333333333 0.4166666666666667 0.08333333333333333  0.1666666666666667 0.4166666666666667 0.08333333333333333  0.25 0.4166666666666667 0.08333333333333333  0.3333333333333333 0.4166666666666667 0.08333333333333333  0.4166666666666667 0.4166666666666667 0.08333333333333333  0.5 0.4166666666666667 0.08333333333333333  0.5833333333333334 0.4166666666666667 0.08333333333333333  0.6666666666666666 0.4166666666666667 0.08333333333333333  0.75 0.4166666666666667 0.08333333333333333  0.8333333333333334 0.4166666666666667 0.08333333333333333  0.9166666666666666 0.4166666666666667 0.08333333333333333  1 0.4166666666666667 0.08333333333333333  0 0.5 0.08333333333333333  0.08333333333333333 0.5 0.08333333333333333  0.1666666666666667 0.5 0.08333333333333333  0.25 0.5 0.08333333333333333  0.3333333333333333 0.5 0.08333333333333333  0.4166666666666667 0.5 0.08333333333333333  0.5 0.5 0.08333333333333333  0.5833333333333334 0.5 0.08333333333333333  0.6666666666666666 0.5 0.08333333333333333  0.75 0.5 0.08333333333333333  0.8333333333333334 0.5 0.08333333333333333  0.9166666666666666 0.5 0.08333333333333333  1 0.5 0.08333333333333333  0 0.5833333333333334 0.08333333333333333  0.08333333333333333 0.5833333333333334 0.08333333333333333  0.1666666666666667 0.5833333333333334 0.08333333333333333  0.25 0.5833333333333334 0.08333333333333333  0.3333333333333333 0.5833333333333334 0.08333333333333333  0.4166666666666667 0.5833333333333334 0.08333333333333333  0.5 0.5833333333333334 0.08333333333333333  0.5833333333333334 0.5833333333333334 0.08333333333333333  0.6666666666666666 0.5833333333333334 0.08333333333333333  0.75 0.5833333333333334 0.08333333333333333  0.8333333333333334 0.5833333333333334 0.083
[...]
<PointData  Vectors="f_32"> 
<DataArray  type="Float64"  Name="f_32"  NumberOfComponents="3" format="ascii">0.0000000000000000e+00 0.0000000000000000e+00 0.0000000000000000e+00  1.5278175448146934e-02 1.7414088247972258e-02 1.7414088247972262e-02  2.4347611030042272e-02 2.3167484303356439e-02 2.3167484303356457e-02  3.2288062529042844e-02 2.6785816798646563e-02 2.6785816798646524e-02  4.0389595606800888e-02 2.9045667294885644e-02 2.9045667294885634e-02  4.8923223951480056e-02 3.0455103368049737e-02 3.0455103368049730e-02  5.7960120774823480e-02 3.1323193266606722e-02 3.1323193266606687e-02  6.7481294760749724e-02 3.1852725475567743e-02 3.1852725475567716e-02  7.7429184214624691e-02 3.2184099565072781e-02 3.2184099565072809e-02  8.7733102097761029e-02 3.2417206298549064e-02 3.2417206298549051e-02  9.8314926660880694e-02 3.2627441209962200e-02 3.2627441209962166e-02  1.0909767233200955e-01 3.2868600714651267e-02 3.2868600714651253e-02  1.1995134133743594e-01 3.3174838492948625e-02 3.3174838492948673e-02  0.0000000000000000e+00 0.0000000000000000e+00 0.0000000000000000e+00  1.0605784231747507e-02 1.1846201970862037e-02 1.8619460012518196e-02  2.0385088239898923e-02 1.8640790898974101e-02 2.3760022876917378e-02  2.9470812521697587e-02 2.2539302008149478e-02 2.7176084274243263e-02  3.8430923597071648e-02 2.4752991904440500e-02 2.9293064124039571e-02  4.7575298964869929e-02 2.5996685088812380e-02 3.0611144898525417e-02  5.7037905253890221e-02 2.6670419478874947e-02 3.1419617062452415e-02  6.6843256544111065e-02 2.7013119110672456e-02 3.1908281995213623e-02  7.6966896791713854e-02 2.7180398464955187e-02 3.2211049248621081e-02  8.7364180511369724e-02 2.7277551553362082e-02 3.2423856439454481e-02  9.7982211057528801e-02 2.7382332738816510e-02 3.2620681456224328e-02  1.0876471776032104e-01 2.7552350332572140e-02 3.2857585801737650e-02  1.1961852484227319e-01 2.7850784520653919e-02 3.3157397430338402e-02  0.0000000000000000e+00 0.0000000000000000e+00 0.0000000000000000e+00  9.5783317662475279e-03 8.1653118197210408e-03 1.9326572167569011e-02  1.8265998719686417e-02 1.4093275180255466e-02 2.4840485929124839e-02  2.7256239927735269e-02 1.7876894516540415e-02 2.8138662890802330e-02  3.6541764954738078e-02 2.0050596476670325e-02 3.0012553925732006e-02  4.6081418340747027e-02 2.1210701709840032e-02 3.1115000208770345e-02  5.5893182851610927e-02 2.1774751522082799e-02 3.1757076080923541e-02  6.5972328784455872e-02 2.2004524489095106e-02 3.2120043218177977e-02  7.6292999597012620e-02 2.2067545886019151e-02 3.2328851302557429e-02  8.6819593564792477e-02 2.2073126228895096e-02 3.2471086497500135e-02  9.7513494715291055e-02 2.2099177392952384e-02 3.2614951779728091e-02  1.0833273413205910e-01 2.2208878310478519e-02 3.2808068568711150e-02  1.1920885375120198e-01 2.2503551536516207e-02 3.3067797397890265e-02  0.0000000000000000e+00 0.0000000000000000e+00 0.0000000000000000e+00  9.3013238830842847e-03 5.6775125612895773e-03 1.9800493260198365e-02  1.7244913346529198e-02 1.0094806502513555e-02 2.5727808268611360e-02  2.5805930453654400e-02 1.3208687735757608e-02 2.9073020407724613e-02  3.5045091404834951e-02 1.5106985068447836e-02 3.0813736134251219e-02  4.4739449642175966e-02 1.6136042830132653e-02 3.1731600624602604e-02  5.4770275069897172e-02 1.6618812003572996e-02 3.2196786400782794e-02  6.5061422823136567e-02 1.6789688525091280e-02 3.2410037680021681e-02  7.5555942863636427e-02 1.6805630405424751e-02 3.2498692573528880e-02  8.6208625774088637e-02 1.6769706188937746e-02 3.2545443294987805e-02  9.6982800910510855e-02 1.6754208828834855e-02 3.2611277029139775e-02  1.0784287295854394e-01 1.6826034222227653e-02 3.2732721039167988e-02  1.1874627734069457e-01 1.7097119023878674e-02 3.2923066579680735e-02  0.0000000000000000e+00 0.0000000000000000e+00 0.0000000000000000e+00  9.2027059139141495e-03 3.6781233578774180e-03 2.0129060954515346e-02  1.6744912885998262e-02 6.5757436367729289e-03 2.6341817116811640e-02  2.4943301338844634e-02 8.7362492789403133e-03 2.9780638092086063e-02  3.4021899691664345e-02 1.0124010869461767e-02 3.1471011461086544e-02  4.3726052332823666e-02 1.0902540228225163e-02 3.2270096730361859e-02  5.3860531103284350e-02 1.1272813368261043e-02 3.2599216813143254e-02  6.4285373734183943e-02 1.1401240884716984e-02 3.2685412294211395e-02  7.4904905978140771e-02 1.1406803418924437e-02 3.2665150272911198e-02  8.5655042279561444e-02 1.1370264173120870e-02 3.2620783313665754e-02  9.6493193965799737e-02 1.1348294621716942e-02 3.2608172853858530e-02  1.0738702083595490e-01 1.1400294318157480e-02 3.2655117403328791e-02  1.1831557970975481e-01 1.1614226739963741e-02 3.2773418145783967e-02  0.0000000000000000e+00 0.0000000000000000e+00 0.0000000000000000e+00  9.1655470644300008e-03 1.9066345639178848e-03 2.0325246413551230e-02  1.6505933812504453e-02 3.3485985369086694e-03 2.6699352983497331e-02  2.4485426925741526e-02 4.4537006812944138e-03 3.0212232788179066e-02  3.3430386363035344e-02 5.1865300586425491e-03 3.1890035154926243e-02  4.3101246375849063e-02 5.6108554272093344e-03 3.2625648699874048e-02  5.3271961425755077e-02 5.8204859466424747e-03 3.2872446481236196e-02  6.3764774449611525e-02 5.8995846326900638e-03 3.2876549235330760e-02  7.4455940506661517e-02 5.9112818348308737e-03 3.2782636864323034e-02  8.5265176059244982e-02 5.8999064681390743e-03 3.2674446221066439e-02  9.6142983016353323e-02 5.8959962815141069e-03 3.2605050327917828e-02  1.0705900285994104e-01 5.9374698512899915e-03 3.2597596352316079e-02  1.1800471308780892e-01 6.0620442735819045e-03 3.2663131837277655e-02  0.0000000000000000e+00 0.0000000000000000e+00 0.0000000000000000e+00  9.1483285914729928e-03 2.4146709512325322e-04 2.0399016284727157e-02  1.6420910822929374e-02 2.6199709292301290e-04 2.6823018360079647e-02  2.4326690434190393e-02 2.7862939756173632e-04 3.0361349929793335e-02  3.3221805374784745e-02 2.9231710258206751e-04 3.2036204524879881e-02  4.2875150458920458e-02 3.0709377175715979e-04 3.2750632934403154e-02  5.3053315677984415e-02 3.2462829575298545e-04 3.2968964408543674e-02  6.3566430430132798e-02 3.4484605378437203e-04 3.2944162745024118e-02  7.4280678144296383e-02 3.6748363069960798e-04 3.2823957012291322e-02  8.5109662432927655e-02 3.9274725182498143e-04 3.2692743952708200e-02  9.6000829979306868e-02 4.1881155661570990e-04 3.2602422256807442e-02  1.0692549078293649e-01 4.5224480995392948e-04 3.2575327943685062e-02  1.1787632616516504e-01 4.6915636269402253e-04 3.2621092406176708e-02  0.0000000000000000e+00 0.0000000000000000e+00 0.0000000000000000e+00  9.1399054078494107e-03 -1.4053927182187400e-03 2.0354778393587302e-02  1.6462385448761295e-02 -2.8137736581060435e-03 2.6720641642889863e-02  2.4435731731597448e-02 -3.8899873409998452e-03 3.0229282924813122e-02  3.3377639882175687e-02 -4.5975004175300609e-03 3.1901692902613417e-02  4.3047166504952050e-02 -4.9937727574714316e-03 3.2631733450675438e-02  5.3218000590725102e-02 -5.1694903760624413e-03 3.2874372083444382e-02  6.3711518185461877e-02 -5.2090008198527942e-03 3.2875846044476652e-02  7.4403302259265156e-02 -5.1760126397237200e-03 3.2780376552784464e-02  8.5213230593611328e-02 -5.1147533587563195e-03 3.2671375707090437e-02  9.6091263917468944e-02 -5.0589241949922205e-03 3.2600877039153021e-02  1.0701033158874840e-01 -5.0352809399415461e-03 3.2593823853835815e-02  1.1795302026249432e-01 -5.1238160941943075e-03 3.2657608704774264e-02  0.0000000000000000e+00 0.0000000000000000e+00 0.0000000000000000e+00  9.1454805051167064e-03 -3.1178842986654223e-03 2.0191716043149618e-02  1.6657108769499648e-02 -6.0088129824601693e-03 2.6387697482277272e-02  2.4843298020287334e-02 -8.1528415972844815e-03 2.9816675099288537e-02  3.3914936962215016e-02 -9.5221244517909118e-03 3.1494261873212546e-02  4.3617032522691571e-02 -1.0277669546645824e-02 3.2281609677264379e-02  5.3752872380016893e-02 -1.0617546569690300e-02 3.2602495376168848e-02  6.4179794143994232e-02 -1.0708662603213383e-02 3.2683764845298703e-02  7.4800725404130339e-02 -1.0670956963852002e-02 3.2660698895945701e-02  8.5551966725981782e-02 -1.0586127964811960e-02 3.2614877145719250e-02  9.6390152059671705e-02 -1.0512711444912622e-02 3.2600407105656648e-02  1.0728938886164588e-01 -1.0504548461634511e-02 3.2648073046811756e-02  1.1821256530756820e-01 -1.0675664347991940e-02 3.2763414444822836e-02  0.0000000000000000e+00 0.0000000000000000e+00 0.0000000000000000e+00  9.2200755864308235e-03 -5.0283825633922648e-03 1.9900239710195083e-02  1.7122983670939819e-02 -9.4744073530951631e-03 2.5810008136656890e-02  2.5653689554492293e-02 -1.2590469949985075e-02 2.9130486123429944e-02  3.4880819532865481e-02 -1.4485496710570513e-02 3.0847514917308281e-02  4.4575263941745720e-02 -1.5501692735301701e-02 3.1746587407548002e-02  5.4610828479944654e-02 -1.5959460227673826e-02 3.2200196811950903e-02  6.4905953697094107e-02 -1.6095468661959249e-02 3.2406972140244641e-02  7.5402041281737275e-02 -1.6069295873723955e-02 3.2492337818246515e-02  8.6054979770202530e-02 -1.5986738405440057e-02 3.2537504644953426e-02  9.6828178637002646e-02 -1.5920366631037675e-02 3.2601514109530307e-02  1.0769442943625170e-01 -1.5939332336792324e-02 3.2723270262926450e-02  1.1859163850101474e-01 -1.6156423887824029e-02 3.2910077523133990e-02  0.0000000000000000e+00 0.0000000000000000e+00 0.0000000000000000e+00  9.5035731096445378e-03 -7.3391901469498921e-03 1.9489789351490212e-02  1.8078438129597686e-02 -1.3381316907419550e-02 2.4973111311257221e-02  2.7017944090486069e-02 -1.7220877517557052e-02 2.8228218824498368e-02  3.6308623293317341e-02 -1.9416268995595051e-02 3.0052502092645563e-02  4.5864257174842514e-02 -2.0576256719683713e-02 3.1128890232287841e-02  5.5687962632783403e-02 -2.1117455711360283e-02 3.1756911645522905e-02  6.5771909971451631e-02 -2.1311374809328796e-02 3.2113481702800845e-02  7.6092339829436056e-02 -2.1331399432037716e-02 3.2319954997837200e-02  8.6616745116202418e-02 -2.1290699477588607e-02 3.2461444951918890e-02  9.7307755378095995e-02 -2.1266044960440756e-02 3.2604365513875584e-02  1.0812909118685972e-01 -2.1329948879484986e-02 3.2796120749770896e-02  1.1899934029076766e-01 -2.1558497444196630e-02 3.3053281129046999e-02  0.0000000000000000e+00 0.0000000000000000e+00 0.0000000000000000e+00  1.0444735627858645e-02 -1.0757791275600694e-02 1.8670352661864724e-02  2.0135686301278342e-02 -1.7882567628063766e-02 2.3968474652590711e-02  2.9204856521756761e-02 -2.1868818496269749e-02 2.7243148319165283e-02  3.8188112513117239e-02 -2.4122533592063636e-02 2.9312702536214038e-02  4.7345952316025876e-02 -2.5364798598883641e-02 3.0605724014555406e-02  5.6807688281856686e-02 -2.6010570431324886e-02 3.1408888396937930e-02  6.6604814587539932e-02 -2.6314600215627065e-02 3.1898317903738545e-02  7.6718420585905972e-02 -2.6438581870515215e-02 3.2203314149831901e-02  8.7106281476562172e-02 -2.6490395225573213e-02 3.2418037867533001e-02  9.7716274222533983e-02 -2.6546677190507767e-02 3.2615326495792560e-02  1.0849309885839420e-01 -2.6675298674202548e-02 3.2847527866028854e-02  1.1934617561752997e-01 -2.6905925634279862e-02 3.3145431695735833e-02  0.0000000000000000e+00 0.0000000000000000e+00 0.0000000000000000e+00  1.4792772945841316e-02 -1.6118597852795621e-02 1.9474166289173655e-02  2.3891135950220941e-02 -2.2445351858214852e-02 2.3270289724121179e-02  3.1954789123628452e-02 -2.6194649942263198e-02 2.6857645687392628e-02  4.0093437878470709e-02 -2.8467539825072444e-02 2.9041632213414281e-02  4.8630465811254381e-02 -2.9850772496996577e-02 3.0424126938048478e-02  5.7655327680402338e-02 -3.0677097502524720e-02 3.1295592118607572e-02  6.7162217640920757e-02 -3.1160844092301361e-02 3.1830799899745042e-02  7.7098249589859433e-02 -3.1445302690571435e-02 3.2167593736713074e-02  8.7393993800834374e-02 -3.1631131502593994e-02 3.2404997774331347e-02  9.7975243764315934e-02 -3.1792379749770595e-02 3.2617470443492197e-02  1.0875606024491957e-01 -3.1986886173017579e-02 3.2858186904471544e-02  1.1961792479791418e-01 -3.2232127814459520e-02 3.3161440395367121e-02  0.0000000000000000e+00 0.0000000000000000e+00 0.0000000000000000e+00  1.0605784231747505e-02 1.8619460012518223e-02 1.1846201970862032e-02  2.0385088239898909e-02 2.3760022876917388e-02 1.8640790898974101e-02  2.9470812521697646e-02 2.7176084274243201e-02 2.2539302008149485e-02  3.8430923597071627e-02 2.9293064124039543e-02 2.4752991904440465e-02  4.7575298964869908e-02 3.0611144898525455e-02 2.5996685088812428e-02  5.7037905253890263e-02 3.1419617062452394e-02 2.6670419478874972e-02  6.6843256544111135e-02 3.1908281995213672e-02 2.7013119110672456e-02  7.6966896791713785e-02 3.2211049248621046e-02 2.7180398464955187e-02  8.7364180511369641e-02 3.2423856439454488e-02 2.7277551553362089e-02  9.7982211057528856e-02 3.2620681456224321e-02 2.7382332738816535e-02  1.0876471776032096e-01 3.2857585801737636e-02 2.7552350332572154e-02  1.1961852484227334e-01 3.3157397430338395e-02 2.7850784520653923e-02  0.0000000000000000e+00 0.0000000000000000e+00 0.0000000000000000e+00  5.0259739571331665e-03 1.2407877271967772e-02 1.2407877271967772e-02  1.6311065700014532e-02 1.8604394073766975e-02 1.8604394073766971e-02  2.6745587120329165e-02 2.2587837577642850e-02 2.2587837577642846e-02  3.6578063125931322e-02 2.4740756692554513e-02 2.4740756692554527e-02  4.6320282350032833e-02 2.5973845786413870e-02 2.5973845786413895e-02  5.6193321611962152e-02 2.6646607652828263e-02 2.6646607652828322e-02  6.6268949195989579e-02 2.6992958842821352e-02 2.6992958842821393e-02  7.6556892281477745e-02 2.7165950314024273e-02 2.7165950314024266e-02  8.7038871900029166e-02 2.7269718132741982e-02 2.7269718132741930e-02  9.7685582167148843e-02 2.7381497485937389e-02 2.7381497485937406e-02  1.0846075310860914e-01 2.7560184981562492e-02 2.7560184981562475e-02  1.1930305264445257e-01 2.7846676436873063e-02 2.7846676436873070e-02  0.0000000000000000e+00 0.0000000000000000e+00 0.0000000000000000e+00  4.0271803567049668e-03 8.0182530103549247e-03 1.2922775511777536e-02  1.4215198153862027e-02 1.3835442391467343e-02 1.9438158575128459e-02  2.4557201030502244e-02 1.7651838973460211e-02 2.3415624146383551e-02  3.4742886710071710e-02 1.9828517673339166e-02 2.5343355953503365e-02  4.4890584911252626e-02 2.1031087263604496e-02 2.6396265418969146e-02  5.5111008007724810e-02 2.1639373058026962e-02 2.6925620175253462e-02  6.5453668645161264e-02 2.1910786351743233e-02 2.7165464041675698e-02  7.5930830931075013e-02 2.2010446559098413e-02 2.7260914267910809e-02  8.6535683204009214e-02 2.2047602013612298e-02 2.7308449136454992e-02  9.7254619371305112e-02 2.2101202448401490e-02 2.7379573882346384e-02  1.0806880248778719e-01 2.2235412396170121e-02 2.7525293723724802e-02  1.1893467487076360e-01 2.2520748893358821e-02 2.7779286811482978e-02  0.0000000000000000e+00 0.0000000000000000e+00 0.0000000000000000e+00  3.6814200940113125e-03 5.5537362208153869e-03 1.3401293541164143e-02  1.3012809193396400e-02 9.8236508165089019e-03 2.0285320128605414e-02  2.3074053387899331e-02 1.2912786546283273e-02 2.4286584536965403e-02  3.3288726834575795e-02 1.4817431633855934e-02 2.6088812483571543e-02  4.3615967498003921e-02 1.5892315346927258e-02 2.6973167873281932e-02  5.4059007024778637e-02 1.6431910268770153e-02 2.7336522822392070e-02  6.4608351305176864e-02 1.6658848026449999e-02 2.7435976287112390e-02  7.5251464968481604e-02 1.6725098171925096e-02 2.7419711072508329e-02  8.5975715094644953e-02 1.6732807115429654e-02 2.7380079693456658e-02  9.6771741962805496e-02 1.6755814994225692e-02 2.7382187973286773e-02  1.0763055740289876e-01 1.6860101788098616e-02 2.7469837054484317e-02  1.1853206468575221e-01 1.7130205423485093e-02 2.7671832866421157e-02  0.0000000000000000e+00 0.0000000000000000e+00 0.0000000000000000e+00  3.4982097818562169e-03 3.5816590477178410e-03 1.3731658987056224e-02  1.2412547071749524e-02 6.3556177320433305e-03 2.0884237077351927e-02  2.2190800600488086e-02 8.4958398311512778e-03 2.4971541778138061e-02  3.2296131441505699e-02 9.8825727414495572e-03 2.6727649273487288e-02  4.2658023915155927e-02 1.0692214426326686e-02 2.7496057244807432e-02  5.3211432717031291e-02 1.1107195759975394e-02 2.7726729714149651e-02  6.3891900717759492e-02 1.1282941137941848e-02 2.7702945706079545e-02  7.4654255334143244e-02 1.1332721157116900e-02 2.7581936634728278e-02  8.5470777607604465e-02 1.1335423763187491e-02 2.7456250389271252e-02  9.6328665328195645e-02 1.1349005900307336e-02 2.7387076090121587e-02  1.0722487756425263e-01 1.1429610201720331e-02 2.7413751378173205e-02  1.1816091764167938e-01 1.1650286738254639e-02 2.7563633665936869e-02  0.0000000000000000e+00 0.0000000000000000e+00 0.0000000000000000e+00  3.4099533239661571e-03 1.8681657425023274e-03 1.3927358773756532e-02  1.2110304380877282e-02 3.2259439747778017e-03 2.1238388729479675e-02  2.1708834505561169e-02 4.3234175387463422e-03 2.5397240248936810e-02  3.1717265951978227e-02 5.0534467751385459e-03 2.7140066507714666e-02  4.2067060477093722e-02 5.4929565442328899e-03 2.7845334422760125e-02  5.2664199666080158e-02 5.7259724208124241e-03 2.7994932389248928e-02  6.3412412758694248e-02 5.8309339055940554e-03 2.7890708924895282e-02  7.4243259628338137e-02 5.8675714032162740e-03 2.7698168113132374e-02  8.5115766082566588e-02 5.8786816318813434e-03 2.7511639280343083e-02  9.6012199657573696e-02 5.8958827285224280e-03 2.7390606577260300e-02  1.0693276150433043e-01 5.9525149751651742e-03 2.7372651888740333e-02  1.1789347974244313e-01 6.0885711880673352e-03 2.7484632482703587e-02  0.0000000000000000e+00 0.0000000000000000e+00 0.0000000000000000e+00  3.3763277834366733e-03 2.6966237321338196e-04 1.3999750624033715e-02  1.2001922430972457e-02 2.4884082658891473e-04 2.1359514551380510e-02  2.1539436259461291e-02 2.7845150576342065e-04 2.5544333359924253e-02  3.1510987910820527e-02 2.9202846109437118e-04 2.7283937775516597e-02  4.1851847883132717e-02 3.0732036689480347e-04 2.7968313470217585e-02  5.2459976958329511e-02 3.2452477681894643e-04 2.8089921233428225e-02  6.3228880793853512e-02 3.4431066407351798e-04 2.7957371335114851e-02  7.4081916791144606e-02 3.6664493763237719e-04 2.7739300686040518e-02  8.4973130773722649e-02 3.9148505651157874e-04 2.7530786059007311e-02  9.5882640312573778e-02 4.1800849654102915e-04 2.7390695626318396e-02  1.0681200704507215e-01 4.4834313808683220e-04 2.7356471766922814e-02  1.1778187419950288e-01 4.7797991612549942e-04 2.7454111001108637e-02  0.0000000000000000e+00 0.0000000000000000e+00 0.0000000000000000e+00  3.3873169689126602e-03 -1.3105935595683048e-03 1.3953793028621623e-02  1.2060727222518086e-02 -2.7206554751986567e-03 2.1253817404802939e-02  2.1653883105562825e-02 -3.7617219292435766e-03 2.5411596454189132e-02  3.1661383019639007e-02 -4.4667394243421317e-03 2.7149858046179590e-02  4.2012403252658863e-02 -4.8770159386081029e-03 2.7850403053643714e-02  5.2610919924118364e-02 -5.0763121908060076e-03 2.7996358394971419e-02  6.3360163202525605e-02 -5.1420174786119821e-03 2.7889852630579408e-02  7.4191662069043568e-02 -5.1341704880454872e-03 2.7696031171488833e-02  8.5064714394684729e-02 -5.0958796214567777e-03 2.7508756240643313e-02  9.5961522359412452e-02 -5.0602439341336149e-03 2.7386898280876891e-02  1.0688338977877451e-01 -5.0571744304091365e-03 2.7368776541632032e-02  1.1784472916549275e-01 -5.1349005394971383e-03 2.7478878892774051e-02  0.0000000000000000e+00 0.0000000000000000e+00 0.0000000000000000e+00  3.4481055034343193e-03 -2.9672118772562758e-03 1.3786800499711871e-02  1.2310500504393871e-02 -5.8292356412521611e-03 2.0919833699311472e-02  2.2079522024343271e-02 -7.9205513668778576e-03 2.5003532505814219e-02  3.2184457815854606e-02 -9.2887440528411028e-03 2.6748702673171726e-02  4.2549557983535304e-02 -1.0072774422680496e-02 2.7506332446741052e-02  5.3106125742710016e-02 -1.0455791168167947e-02 2.7729525029968720e-02  6.3788719640004835e-02 -1.0593083645263998e-02 2.7701351407352009e-02  7.4552228426514738e-02 -1.0598840224573722e-02 2.7577928853999095e-02  8.5369486424426475e-02 -1.0552914549849891e-02 2.74508368519