<?xml version="1.0"?>
<VTKFile type="UnstructuredGrid"  version="0.1"  >
<UnstructuredGrid>
<Piece  NumberOfPoints="649" NumberOfCells="2662">
<Points>
<DataArray  type="Float64"  NumberOfComponents="3"  format="ascii">0 0 0  0.08333333333333333 0 0  0.08333333333333333 0.08333333333333333 0  0.08333333333333333 0.08333333333333333 0.08333333333333333  0.08333333333333333 0 0.08333333333333333  0 0 0.08333333333333333  0 0.08333333333333333 0  0 0.08333333333333333 0.08333333333333333  0.1666666666666667 0 0  0.1666666666666667 0.08333333333333333 0  0.1666666666666667 0.08333333333333333 0.08333333333333333  0.1666666666666667 0 0.08333333333333333  0.25 0 0  0.25 0.08333333333333333 0  0.25 0.08333333333333333 0.08333333333333333  0.25 0 0.08333333333333333  0.3333333333333333 0 0  0.3333333333333333 0.08333333333333333 0  0.3333333333333333 0.08333333333333333 0.08333333333333333  0.3333333333333333 0 0.08333333333333333  0.4166666666666667 0 0  0.4166666666666667 0.08333333333333333 0  0.4166666666666667 0.08333333333333333 0.08333333333333333  0.4166666666666667 0 0.08333333333333333  0.5 0 0  0.5 0.08333333333333333 0  0.5 0.08333333333333333 0.08333333333333333  0.5 0 0.08333333333333333  0.08333333333333333 0.1666666666666667 0  0.08333333333333333 0.1666666666666667 0.08333333333333333  0 0.1666666666666667 0  0 0.1666666666666667 0.08333333333333333  0.1666666666666667 0.1666666666666667 0  0.1666666666666667 0.1666666666666667 0.08333333333333333  0.25 0.1666666666666667 0  0.25 0.1666666666666667 0.08333333333333333  0.3333333333333333 0.1666666666666667 0  0.3333333333333333 0.1666666666666667 0.08333333333333333  0.4166666666666667 0.1666666666666667 0  0.4166666666666667 0.1666666666666667 0.08333333333333333  0.5 0.1666666666666667 0  0.5 0.1666666666666667 0.08333333333333333  0.08333333333333333 0.25 0  0.08333333333333333 0.25 0.08333333333333333  0 0.25 0  0 0.25 0.08333333333333333  0.1666666666666667 0.25 0  0.1666666666666667 0.25 0.08333333333333333  0.25 0.25 0  0.25 0.25 0.08333333333333333  0.3333333333333333 0.25 0  0.3333333333333333 0.25 0.08333333333333333  0.4166666666666667 0.25 0  0.4166666666666667 0.25 0.08333333333333333  0.5 0.25 0  0.5 0.25 0.08333333333333333  0.08333333333333333 0.3333333333333333 0  0.08333333333333333 0.3333333333333333 0.08333333333333333  0 0.3333333333333333 0  0 0.3333333333333333 0.08333333333333333  0.1666666666666667 0.3333333333333333 0  0.1666666666666667 0.3333333333333333 0.08333333333333333  0.25 0.3333333333333333 0  0.25 0.3333333333333333 0.08333333333333333  0.3333333333333333 0.3333333333333333 0  0.3333333333333333 0.3333333333333333 0.08333333333333333  0.4166666666666667 0.3333333333333333 0  0.4166666666666667 0.3333333333333333 0.08333333333333333  0.5 0.3333333333333333 0  0.5 0.3333333333333333 0.08333333333333333  0.08333333333333333 0.4166666666666667 0  0.08333333333333333 0.4166666666666667 0.08333333333333333  0 0.4166666666666667 0  0 0.4166666666666667 0.08333333333333333  0.1666666666666667 0.4166666666666667 0  0.1666666666666667 0.4166666666666667 0.08333333333333333  0.25 0.4166666666666667 0  0.25 0.4166666666666667 0.08333333333333333  0.3333333333333333 0.4166666666666667 0  0.3333333333333333 0.4166666666666667 0.08333333333333333  0.4166666666666667 0.4166666666666667 0  0.4166666666666667 0.4166666666666667 0.08333333333333333  0.5 0.4166666666666667 0  0.5 0.4166666666666667 0.08333333333333333  0.08333333333333333 0.5 0  0.08333333333333333 0.5 0.08333333333333333  0 0.5 0  0 0.5 0.08333333333333333  0.1666666666666667 0.5 0  0.1666666666666667 0.5 0.08333333333333333  0.25 0.5 0  0.25 0.5 0.08333333333333333  0.3333333333333333 0.5 0  0.3333333333333333 0.5 0.08333333333333333  0.4166666666666667 0.5 0  0.4166666666666667 0.5 0.08333333333333333  0.5 0.5 0  0.5 0.5 0.08333333333333333  0.08333333333333333 0.5833333333333334 0  0.08333333333333333 0.5833333333333334 0.08333333333333333  0 0.5833333333333334 0  0 0.5833333333333334 0.08333333333333333  0.1666666666666667 0.5833333333333334 0  0.1666666666666667 0.5833333333333334 0.08333333333333333  0.25 0.5833333333333334 0  0.25 0.5833333333333334 0.08333333333333333  0.3333333333333333 0.5833333333333334 0  0.3333333333333333 0.5833333333333334 0.08333333333333333  0.4166666666666667 0.5833333333333334 0  0.4166666666666667 0.5833333333333334 0.08333333333333333  0.5 0.5833333333333334 0  0.5 0.5833333333333334 0.08333333333333333  0.08333333333333333 0.6666666666666666 0  0.08333333333333333 0.6666666666666666 0.08333333333333333  0 0.6666666666666666 0  0 0.6666666666666666 0.08333333333333333  0.1666666666666667 0.6666666666666666 0  0.1666666666666667 0.6666666666666666 0.08333333333333333  0.25 0.6666666666666666 0  0.25 0.6666666666666666 0.08333333333333333  0.3333333333333333 0.6666666666666666 0  0.3333333333333333 0.6666666666666666 0.08333333333333333  0.4166666666666667 0.6666666666666666 0  0.4166666666666667 0.6666666666666666 0.08333333333333333  0.5 0.6666666666666666 0  0.5 0.6666666666666666 0.08333333333333333  0.08333333333333333 0.75 0  0.08333333333333333 0.75 0.08333333333333333  0 0.75 0  0 0.75 0.08333333333333333  0.1666666666666667 0.75 0  0.1666666666666667 0.75 0.08333333333333333  0.25 0.75 0  0.25 0.75 0.08333333333333333  0.3333333333333333 0.75 0  0.3333333333333333 0.75 0.08333333333333333  0.4166666666666667 0.75 0  0.4166666666666667 0.75 0.08333333333333333  0.5 0.75 0  0.5 0.75 0.08333333333333333  0.08333333333333333 0.8333333333333334 0  0.08333333333333333 0.8333333333333334 0.08333333333333333  0 0.8333333333333334 0  0 0.8333333333333334 0.08333333333333333  0.1666666666666667 0.8333333333333334 0  0.1666666666666667 0.8333333333333334 0.08333333333333333  0.25 0.8333333333333334 0  0.25 0.8333333333333334 0.08333333333333333  0.3333333333333333 0.8333333333333334 0  0.3333333333333333 0.8333333333333334 0.08333333333333333  0.4166666666666667 0.8333333333333334 0  0.4166666666666667 0.8333333333333334 0.08333333333333333  0.5 0.8333333333333334 0  0.5 0.8333333333333334 0.08333333333333333  0.08333333333333333 0.9166666666666666 0  0.08333333333333333 0.9166666666666666 0.08333333333333333  0 0.9166666666666666 0  0 0.9166666666666666 0.08333333333333333  0.1666666666666667 0.9166666666666666 0  0.1666666666666667 0.9166666666666666 0.08333333333333333  0.25 0.9166666666666666 0  0.25 0.9166666666666666 0.08333333333333333  0.3333333333333333 0.9166666666666666 0  0.3333333333333333 0.9166666666666666 0.08333333333333333  0.4166666666666667 0.9166666666666666 0  0.4166666666666667 0.9166666666666666 0.08333333333333333  0.5 0.9166666666666666 0  0.5 0.9166666666666666 0.08333333333333333  0.08333333333333333 1 0  0.08333333333333333 1 0.08333333333333333  0 1 0  0 1 0.08333333333333333  0.1666666666666667 1 0  0.1666666666666667 1 0.08333333333333333  0.25 1 0  0.25 1 0.08333333333333333  0.3333333333333333 1 0  0.3333333333333333 1 0.08333333333333333  0.4166666666666667 1 0  0.4166666666666667 1 0.08333333333333333  0.5 1 0  0.5 1 0.08333333333333333  0.08333333333333333 0.08333333333333333 0.1666666666666667  0.08333333333333333 0 0.1666666666666667  0 0 0.1666666666666667  0 0.08333333333333333 0.1666666666666667  0.1666666666666667 0.08333333333333333 0.1666666666666667  0.1666666666666667 0 0.1666666666666667  0.25 0.08333333333333333 0.1666666666666667  0.25 0 0.1666666666666667  0.3333333333333333 0.08333333333333333 0.1666666666666667  0.3333333333333333 0 0.1666666666666667  0.4166666666666667 0.08333333333333333 0.1666666666666667  0.4166666666666667 0 0.1666666666666667  0.5 0.08333333333333333 0.1666666666666667  0.5 0 0.1666666666666667  0.08333333333333333 0.1666666666666667 0.1666666666666667  0 0.1666666666666667 0.1666666666666667  0.1666666666666667 0.1666666666666667 0.1666666666666667  0.25 0.1666666666666667 0.1666666666666667  0.3333333333333333 0.1666666666666667 0.1666666666666667  0.4166666666666667 0.1666666666666667 0.1666666666666667  0.5 0.1666666666666667 0.1666666666666667  0.08333333333333333 0.25 0.1666666666666667  0 0.25 0.1666666666666667  0.1666666666666667 0.25 0.1666666666666667  0.25 0.25 0.1666666666666667  0.3333333333333333 0.25 0.1666666666666667  0.4166666666666667 0.25 0.1666666666666667  0.5 0.25 0.1666666666666667  0.08333333333333333 0.3333333333333333 0.1666666666666667  0 0.3333333333333333 0.1666666666666667  0.1666666666666667 0.3333333333333333 0.1666666666666667  0.25 0.3333333333333333 0.1666666666666667  0.3333333333333333 0.3333333333333333 0.1666666666666667  0.4166666666666667 0.3333333333333333 0.1666666666666667  0.5 0.3333333333333333 0.1666666666666667  0.08333333333333333 0.4166666666666667 0.1666666666666667  0 0.4166666666666667 0.1666666666666667  0.1666666666666667 0.4166666666666667 0.1666666666666667  0.25 0.4166666666666667 0.1666666666666667  0.3333333333333333 0.4166666666666667 0.1666666666666667  0.4166666666666667 0.4166666666666667 0.1666666666666667  0.5 0.4166666666666667 0.1666666666666667  0.08333333333333333 0.5 0.1666666666666667  0 0.5 0.1666666666666667  0.1666666666666667 0.5 0.1666666666666667  0.25 0.5 0.1666666666666667  0.3333333333333333 0.5 0.1666666666666667  0.4166666666666667 0.5 0.1666666666666667  0.5 0.5 0.1666666666666667  0.08333333333333333 0.5833333333333334 0.1666666666666667  0 0.5833333333333334 0.1666666666666667  0.1666666666666667 0.5833333333333334 0.1666666666666667  0.25 0.5833333333333334 0.1666666666666667  0.3333333333333333 0.5833333333333334 0.1666666666666667  0.4166666666666667 0.5833333333333334 0.1666666666666667  0.5 0.5833333333333334 0.1666666666666667  0.08333333333333333 0.6666666666666666 0.1666666666666667  0 0.6666666666666666 0.1666666666666667  0.1666666666666667 0.6666666666666666 0.1666666666666667  0.25 0.6666666666666666 0.1666666666666667  0.3333333333333333 0.6666666666666666 0.1666666666666667  0.4166666666666667 0.6666666666666666 0.1666666666666667  0.5 0.6666666666666666 0
[...]
<PointData  Vectors="f_35"> 
<DataArray  type="Float64"  Name="f_35"  NumberOfComponents="3" format="ascii">0.0000000000000000e+00 0.0000000000000000e+00 0.0000000000000000e+00  1.5278175448146893e-02 1.7414088247972258e-02 1.7414088247972255e-02  1.0605784231747538e-02 1.1846201970862036e-02 1.8619460012518203e-02  5.0259739571331700e-03 1.2407877271967778e-02 1.2407877271967767e-02  1.0605784231747496e-02 1.8619460012518213e-02 1.1846201970862032e-02  0.0000000000000000e+00 0.0000000000000000e+00 0.0000000000000000e+00  0.0000000000000000e+00 0.0000000000000000e+00 0.0000000000000000e+00  0.0000000000000000e+00 0.0000000000000000e+00 0.0000000000000000e+00  2.4347611030042269e-02 2.3167484303356443e-02 2.3167484303356429e-02  2.0385088239898905e-02 1.8640790898974115e-02 2.3760022876917388e-02  1.6311065700014563e-02 1.8604394073766965e-02 1.8604394073766961e-02  2.0385088239898968e-02 2.3760022876917399e-02 1.8640790898974090e-02  3.2288062529042864e-02 2.6785816798646604e-02 2.6785816798646524e-02  2.9470812521697601e-02 2.2539302008149475e-02 2.7176084274243232e-02  2.6745587120329182e-02 2.2587837577642860e-02 2.2587837577642874e-02  2.9470812521697611e-02 2.7176084274243222e-02 2.2539302008149478e-02  4.0389595606800895e-02 2.9045667294885658e-02 2.9045667294885631e-02  3.8430923597071634e-02 2.4752991904440521e-02 2.9293064124039585e-02  3.6578063125931370e-02 2.4740756692554492e-02 2.4740756692554513e-02  3.8430923597071641e-02 2.9293064124039599e-02 2.4752991904440504e-02  4.8923223951480035e-02 3.0455103368049789e-02 3.0455103368049751e-02  4.7575298964869901e-02 2.5996685088812380e-02 3.0611144898525448e-02  4.6320282350032861e-02 2.5973845786413922e-02 2.5973845786413926e-02  4.7575298964869922e-02 3.0611144898525410e-02 2.5996685088812362e-02  5.7960120774823536e-02 3.1323193266606715e-02 3.1323193266606666e-02  5.7037905253890284e-02 2.6670419478875006e-02 3.1419617062452380e-02  5.6193321611962131e-02 2.6646607652828266e-02 2.6646607652828270e-02  5.7037905253890339e-02 3.1419617062452353e-02 2.6670419478874975e-02  9.5783317662475210e-03 8.1653118197210321e-03 1.9326572167569035e-02  4.0271803567049590e-03 8.0182530103549195e-03 1.2922775511777528e-02  0.0000000000000000e+00 0.0000000000000000e+00 0.0000000000000000e+00  0.0000000000000000e+00 0.0000000000000000e+00 0.0000000000000000e+00  1.8265998719686444e-02 1.4093275180255443e-02 2.4840485929124818e-02  1.4215198153861968e-02 1.3835442391467355e-02 1.9438158575128411e-02  2.7256239927735161e-02 1.7876894516540412e-02 2.8138662890802336e-02  2.4557201030502261e-02 1.7651838973460187e-02 2.3415624146383561e-02  3.6541764954737981e-02 2.0050596476670311e-02 3.0012553925731999e-02  3.4742886710071731e-02 1.9828517673339156e-02 2.5343355953503340e-02  4.6081418340746992e-02 2.1210701709840019e-02 3.1115000208770321e-02  4.4890584911252654e-02 2.1031087263604503e-02 2.6396265418969174e-02  5.5893182851610913e-02 2.1774751522082809e-02 3.1757076080923513e-02  5.5111008007724886e-02 2.1639373058026958e-02 2.6925620175253490e-02  9.3013238830843073e-03 5.6775125612895608e-03 1.9800493260198355e-02  3.6814200940112978e-03 5.5537362208153912e-03 1.3401293541164127e-02  0.0000000000000000e+00 0.0000000000000000e+00 0.0000000000000000e+00  0.0000000000000000e+00 0.0000000000000000e+00 0.0000000000000000e+00  1.7244913346529191e-02 1.0094806502513546e-02 2.5727808268611447e-02  1.3012809193396410e-02 9.8236508165089192e-03 2.0285320128605466e-02  2.5805930453654320e-02 1.3208687735757611e-02 2.9073020407724574e-02  2.3074053387899321e-02 1.2912786546283287e-02 2.4286584536965427e-02  3.5045091404835062e-02 1.5106985068447822e-02 3.0813736134251191e-02  3.3288726834576010e-02 1.4817431633856027e-02 2.6088812483571634e-02  4.4739449642175980e-02 1.6136042830132678e-02 3.1731600624602625e-02  4.3615967498003977e-02 1.5892315346927258e-02 2.6973167873281929e-02  5.4770275069897227e-02 1.6618812003573007e-02 3.2196786400782787e-02  5.4059007024778671e-02 1.6431910268770188e-02 2.7336522822392104e-02  9.2027059139141599e-03 3.6781233578774097e-03 2.0129060954515339e-02  3.4982097818562177e-03 3.5816590477178402e-03 1.3731658987056212e-02  0.0000000000000000e+00 0.0000000000000000e+00 0.0000000000000000e+00  0.0000000000000000e+00 0.0000000000000000e+00 0.0000000000000000e+00  1.6744912885998234e-02 6.5757436367729263e-03 2.6341817116811630e-02  1.2412547071749562e-02 6.3556177320433201e-03 2.0884237077351934e-02  2.4943301338844665e-02 8.7362492789402786e-03 2.9780638092086059e-02  2.2190800600488076e-02 8.4958398311512796e-03 2.4971541778138054e-02  3.4021899691664366e-02 1.0124010869461750e-02 3.1471011461086593e-02  3.2296131441505699e-02 9.8825727414495624e-03 2.6727649273487270e-02  4.3726052332823589e-02 1.0902540228225186e-02 3.2270096730361894e-02  4.2658023915155871e-02 1.0692214426326695e-02 2.7496057244807411e-02  5.3860531103284294e-02 1.1272813368261046e-02 3.2599216813143254e-02  5.3211432717031333e-02 1.1107195759975385e-02 2.7726729714149596e-02  9.1655470644300078e-03 1.9066345639178763e-03 2.0325246413551219e-02  3.4099533239661554e-03 1.8681657425023335e-03 1.3927358773756551e-02  0.0000000000000000e+00 0.0000000000000000e+00 0.0000000000000000e+00  0.0000000000000000e+00 0.0000000000000000e+00 0.0000000000000000e+00  1.6505933812504467e-02 3.3485985369086737e-03 2.6699352983497265e-02  1.2110304380877264e-02 3.2259439747778034e-03 2.1238388729479672e-02  2.4485426925741498e-02 4.4537006812943990e-03 3.0212232788179125e-02  2.1708834505561152e-02 4.3234175387463448e-03 2.5397240248936772e-02  3.3430386363035421e-02 5.1865300586425665e-03 3.1890035154926263e-02  3.1717265951978255e-02 5.0534467751385337e-03 2.7140066507714621e-02  4.3101246375849028e-02 5.6108554272093084e-03 3.2625648699873951e-02  4.2067060477093812e-02 5.4929565442329012e-03 2.7845334422760118e-02  5.3271961425755222e-02 5.8204859466424834e-03 3.2872446481236266e-02  5.2664199666080068e-02 5.7259724208124415e-03 2.7994932389249039e-02  9.1483285914730102e-03 2.4146709512326160e-04 2.0399016284727164e-02  3.3763277834366816e-03 2.6966237321337947e-04 1.3999750624033691e-02  0.0000000000000000e+00 0.0000000000000000e+00 0.0000000000000000e+00  0.0000000000000000e+00 0.0000000000000000e+00 0.0000000000000000e+00  1.6420910822929374e-02 2.6199709292301746e-04 2.6823018360079678e-02  1.2001922430972464e-02 2.4884082658891804e-04 2.1359514551380503e-02  2.4326690434190411e-02 2.7862939756174212e-04 3.0361349929793238e-02  2.1539436259461350e-02 2.7845150576342483e-04 2.5544333359924284e-02  3.3221805374784794e-02 2.9231710258207332e-04 3.2036204524879881e-02  3.1510987910820562e-02 2.9202846109437395e-04 2.7283937775516628e-02  4.2875150458920472e-02 3.0709377175716884e-04 3.2750632934403209e-02  4.1851847883132710e-02 3.0732036689481323e-04 2.7968313470217519e-02  5.3053315677984450e-02 3.2462829575299114e-04 3.2968964408543661e-02  5.2459976958329504e-02 3.2452477681895554e-04 2.8089921233428242e-02  9.1399054078493917e-03 -1.4053927182187329e-03 2.0354778393587313e-02  3.3873169689126836e-03 -1.3105935595683024e-03 1.3953793028621642e-02  0.0000000000000000e+00 0.0000000000000000e+00 0.0000000000000000e+00  0.0000000000000000e+00 0.0000000000000000e+00 0.0000000000000000e+00  1.6462385448761316e-02 -2.8137736581060374e-03 2.6720641642889849e-02  1.2060727222518134e-02 -2.7206554751986597e-03 2.1253817404802908e-02  2.4435731731597472e-02 -3.8899873409998387e-03 3.0229282924813108e-02  2.1653883105562783e-02 -3.7617219292435610e-03 2.5411596454189115e-02  3.3377639882175729e-02 -4.5975004175300540e-03 3.1901692902613452e-02  3.1661383019638972e-02 -4.4667394243421239e-03 2.7149858046179635e-02  4.3047166504952106e-02 -4.9937727574714307e-03 3.2631733450675438e-02  4.2012403252658807e-02 -4.8770159386081037e-03 2.7850403053643665e-02  5.3218000590725095e-02 -5.1694903760624343e-03 3.2874372083444334e-02  5.2610919924118427e-02 -5.0763121908060259e-03 2.7996358394971468e-02  9.1454805051167098e-03 -3.1178842986654119e-03 2.0191716043149597e-02  3.4481055034343237e-03 -2.9672118772562785e-03 1.3786800499711883e-02  0.0000000000000000e+00 0.0000000000000000e+00 0.0000000000000000e+00  0.0000000000000000e+00 0.0000000000000000e+00 0.0000000000000000e+00  1.6657108769499662e-02 -6.0088129824601589e-03 2.6387697482277282e-02  1.2310500504393879e-02 -5.8292356412521645e-03 2.0919833699311430e-02  2.4843298020287355e-02 -8.1528415972844815e-03 2.9816675099288575e-02  2.2079522024343247e-02 -7.9205513668778663e-03 2.5003532505814222e-02  3.3914936962215016e-02 -9.5221244517909188e-03 3.1494261873212540e-02  3.2184457815854627e-02 -9.2887440528411028e-03 2.6748702673171736e-02  4.3617032522691557e-02 -1.0277669546645846e-02 3.2281609677264414e-02  4.2549557983535338e-02 -1.0072774422680489e-02 2.7506332446741222e-02  5.3752872380016962e-02 -1.0617546569690295e-02 3.2602495376168883e-02  5.3106125742709995e-02 -1.0455791168167942e-02 2.7729525029968675e-02  9.2200755864308270e-03 -5.0283825633922613e-03 1.9900239710195070e-02  3.5980998318543163e-03 -4.8439218117348453e-03 1.3492206995825031e-02  0.0000000000000000e+00 0.0000000000000000e+00 0.0000000000000000e+00  0.0000000000000000e+00 0.0000000000000000e+00 0.0000000000000000e+00  1.7122983670939826e-02 -9.4744073530951614e-03 2.5810008136656914e-02  1.2852164658791814e-02 -9.2582589877922231e-03 2.0356586186793181e-02  2.5653689554492272e-02 -1.2590469949985068e-02 2.9130486123429958e-02  2.2910131950294690e-02 -1.2314803515684812e-02 2.4340687945601635e-02  3.4880819532865495e-02 -1.4485496710570481e-02 3.0847514917308257e-02  3.3124419695887565e-02 -1.4213339745983124e-02 2.6122884111312635e-02  4.4575263941745734e-02 -1.5501692735301709e-02 3.1746587407547974e-02  4.3456953397515506e-02 -1.5267411214151698e-02 2.6988505682796243e-02  5.4610828479944716e-02 -1.5959460227673854e-02 3.2200196811950917e-02  5.3905093152234317e-02 -1.5777409161001031e-02 2.7340361604701963e-02  9.5035731096445256e-03 -7.3391901469498965e-03 1.9489789351490181e-02  3.9487840381399707e-03 -7.2020913870969655e-03 1.3070835225917527e-02  0.0000000000000000e+00 0.0000000000000000e+00 0.0000000000000000e+00  0.0000000000000000e+00 0.0000000000000000e+00 0.0000000000000000e+00  1.8078438129597710e-02 -1.3381316907419538e-02 2.4973111311257217e-02  1.3912150408414058e-02 -1.3251339359888250e-02 1.9588948656547017e-02  2.7017944090486086e-02 -1.7220877517557031e-02 2.8228218824498354e-02  2.4306735902983666e-02 -1.7020956762581113e-02 2.3501125449606187e-02  3.6308623293317362e-02 -1.9416268995595062e-02 3.0052502092645528e-02  3.4526658886414097e-02 -1.9211638149339804e-02 2.5380240754957144e-02  4.5864257174842507e-02 -2.0576256719683789e-02 3.1128890232287893e-02  4.4689928054680167e-02 -2.0399183783085310e-02 2.6411130312893751e-02  5.5687962632783451e-02 -2.1117455711360273e-02 3.1756911645522919e-02  5.4917574890032392e-02 -2.0980064203437922e-02 2.6926737367054473e-02  1.0444735627858654e-02 -1.0757791275600692e-02 1.8670352661864734e-02  5.0305326974832941e-03 -1.0835520853827824e-02 1.2595664732416627e-02  0.0000000000000000e+00 0.0000000000000000e+00 0.0000000000000000e+00  0.0000000000000000e+00 0.0000000000000000e+00 0.0000000000000000e+00  2.0135686301278384e-02 -1.7882567628063707e-02 2.3968474652590659e-02  1.6107676962335681e-02 -1.8096897534287715e-02 1.8806287380503259e-02  2.9204856521756768e-02 -2.1868818496269763e-02 2.7243148319165276e-02  2.6557571037613349e-02 -2.1930951959262722e-02 2.2702381335367471e-02  3.8188112513117219e-02 -2.4122533592063639e-02 2.9312702536214066e-02  3.6386536215112966e-02 -2.4125497734304783e-02 2.4776272445085110e-02  4.7345952316025897e-02 -2.5364798598883631e-02 3.0605724014555385e-02  4.6120154562946325e-02 -2.5343727812474116e-02 2.5980528036396177e-02  5.6807688281856575e-02 -2.6010570431324924e-02 3.1408888396937999e-02  5.5978287542289923e-02 -2.5984739891278908e-02 2.6642539631359909e-02  1.4792772945841332e-02 -1.6118597852795610e-02 1.9474166289173651e-02  8.1199698460650126e-03 -1.7227641333933248e-02 1.3119305260492523e-02  0.0000000000000000e+00 0.0000000000000000e+00 0.0000000000000000e+00  0.0000000000000000e+00 0.0000000000000000e+00 0.0000000000000000e+00  2.3891135950220927e-02 -2.2445351858214852e-02 2.3270289724121210e-02  2.0252548945382302e-02 -2.3082649828112509e-02 1.8381600864205479e-02  3.1954789123628466e-02 -2.6194649942263219e-02 2.6857645687392608e-02  2.9442630343374920e-02 -2.6515082627215171e-02 2.2687819647676900e-02  4.0093437878470750e-02 -2.8467539825072469e-02 2.9041632213414346e-02  3.8343758169403989e-02 -2.8653741145810156e-02 2.4741505450603520e-02  4.8630465811254360e-02 -2.9850772496996587e-02 3.0424126938048437e-02  4.7409091254850773e-02 -2.9962315999901647e-02 2.5984719141813190e-02  5.7655327680402470e-02 -3.0677097502524772e-02 3.1295592118607572e-02  5.6814810060541815e-02 -3.0744413880423083e-02 2.6658811754043023e-02  4.0271803567049633e-03 1.2922775511777521e-02 8.0182530103549265e-03  9.5783317662475088e-03 1.9326572167569004e-02 8.1653118197210234e-03  0.0000000000000000e+00 0.0000000000000000e+00 0.0000000000000000e+00  0.0000000000000000e+00 0.0000000000000000e+00 0.0000000000000000e+00  1.4215198153862007e-02 1.9438158575128425e-02 1.3835442391467343e-02  1.8265998719686444e-02 2.4840485929124800e-02 1.4093275180255450e-02  2.4557201030502147e-02 2.3415624146383589e-02 1.7651838973460197e-02  2.7256239927735185e-02 2.8138662890802305e-02 1.7876894516540398e-02  3.4742886710071738e-02 2.5343355953503358e-02 1.9828517673339131e-02  3.6541764954737960e-02 3.0012553925731971e-02 2.0050596476670301e-02  4.4890584911252633e-02 2.6396265418969129e-02 2.1031087263604507e-02  4.6081418340747027e-02 3.1115000208770349e-02 2.1210701709840019e-02  5.5111008007724824e-02 2.6925620175253493e-02 2.1639373058026955e-02  5.5893182851610893e-02 3.1757076080923485e-02 2.1774751522082806e-02  3.1588029956045576e-03 8.3111960740926867e-03 8.3111960740926711e-03  0.0000000000000000e+00 0.0000000000000000e+00 0.0000000000000000e+00  1.2196122452400976e-02 1.4333035084191849e-02 1.4333035084191842e-02  2.2272769696822264e-02 1.8202980887068936e-02 1.8202980887068922e-02  3.2839835866667243e-02 2.0245498959419930e-02 2.0245498959419919e-02  4.3431012634234878e-02 2.1336541626013200e-02 2.1336541626013176e-02  5.4024177246405646e-02 2.1842663614235820e-02 2.1842663614235786e-02  2.8243596444760726e-03 5.6937844015151565e-03 8.7291296107507646e-03  0.0000000000000000e+00 0.0000000000000000e+00 0.0000000000000000e+00  1.0931261276943065e-02 1.0100688789187804e-02 1.4967298590205522e-02  2.0708766551202636e-02 1.3213152359334764e-02 1.8860661308685855e-02  3.1322817709306602e-02 1.5069398147415619e-02 2.0825739654776996e-02  4.2115661791560503e-02 1.6084742372883327e-02 2.1800811632005975e-02  5.2952660194842391e-02 1.6563126573612079e-02 2.2178260462827625e-02  2.6462989633807281e-03 3.6325555667561563e-03 9.0480972917195944e-03  0.0000000000000000e+00 0.0000000000000000e+00 0.0000000000000000e+00  1.0340310052772656e-02 6.4724753224930888e-03 1.5466432003915244e-02  1.9816963888978870e-02 8.6414031252972749e-03 1.9418795768645261e-02  3.0296513198891230e-02 1.0013937515251498e-02 2.1355806061042482e-02  4.1128300777222869e-02 1.0795930285708159e-02 2.2239780787936484e-02  5.2087044164296596e-02 1.1180142036024465e-02 2.2508708009532585e-02  2.5607082078332724e-03 1.8826856143726815e-03 9.2433445713818244e-03  0.0000000000000000e+00 0.0000000000000000e+00 0.0000000000000000e+00  1.0039545921351378e-02 3.2703430081680905e-03 1.5778725733189333e-02  1.9323626530415704e-02 4.3847280862067016e-03 1.9780694369082905e-02  2.9699223135446380e-02 5.1094090299035628e-03 2.1706428736002138e-02  4.0522632147704074e-02 5.5392390425192993e-03 2.2538460970189456e-02  5.1530284142208144e-02 5.7594140898061391e-03 2.2739828383139645e-02  2.5269336119517465e-03 2.6692206772687137e-04 9.3153056126233109e-03  0.0000000000000000e+00 0.0000000000000000e+00 0.0000000000000000e+00  9.9323437294873990e-03 2.4857314079585618e-04 1.5887104743265257e-02  1.9153077685713889e-02 2.8616506150691329e-04 1.9906170700113478e-02  2.9488313518999377e-02 2.9907147595937286e-04 2.1828661277423857e-02  4.0302412649302344e-02 3.1515180878924424e-04 2.2643794044106252e-02  5.1322231667756728e-02 3.3077128707298381e-04 2.2821800645711772e-02  2.5368131078453266e-03 -1.3313942528123371e-03 9.2673003510674850e-03  0.0000000000000000e+00 0.0000000000000000e+00 0.0000000000000000e+00  9.9938725364569110e-03 -2.7658437849598788e-03 1.5791527233638771e-02  1.9272356010680374e-02 -3.8065653252314941e-03 1.9789057664575279e-02  2.9642410768021755e-02 -4.5084031960391123e-03 2.1710671300442543e-02  4.0465138552016701e-02 -4.9082166054378578e-03 2.2539968372513468e-02  5.1473811021550610e-02 -5.0980857227482142e-03 2.2739140988247395e-02  2.5939732008889147e-03 -3.0272526039662579e-03 9.1000381903174610e-03  0.0000000000000000e+00 0.0000000000000000e+00 0.0000000000000000e+00  1.0246223405486749e-02 -5.9503751340125024e-03 1.5496174307800233e-02  1.9709188708637845e-02 -8.0491930827719417e-03 1.9438439084247364e-02  3.0179253475902883e-02 -9.4058540072054948e-03 2.1365971446845607e-02  4.1013544167152804e-02 -1.0163399364540150e-02 2.2242682641941128e-02  5.1975669527500060e-02 -1.0519909283371419e-02 2.2507120652596972e-02  2.7339773661784234e-03 -4.9895068242466955e-03 8.8179173069182579e-03  0.0000000000000000e+00 0.0000000000000000e+00 0.0000000000000000e+00  1.0789889989794689e-02 -9.5208526280629209e-03 1.5019866149703118e-02  2.0562558063553737e-02 -1.2590291320465928e-02 1.8890262617778566e-02  3.1149796153101945e-02 -1.4456025083182436e-02 2.0844038839039736e-02  4.1946704691704681e-02 -1.5452501639944789e-02 2.1806082661599179e-02  5.2790786814289989e-02 -1.5906609156466019e-02 2.2175712170783419e-02  3.0683638656787285e-03 -7.5008301850267552e-03 8.4555659854618267e-03  0.0000000000000000e+00 0.0000000000000000e+00 0.0000000000000000e+00  1.1849354626900855e-02 -1.3757093900741740e-02 1.4431866167501467e-02  2.2002609739375095e-02 -1.7534100235858656e-02 1.8244120150885449e-02  3.2609793401343803e-02 -1.9640864327162250e-02 2.0260543911641862e-02  4.3223902552181420e-02 -2.0714496445642518e-02 2.1342752167372650e-02  5.3829036067233611e-02 -2.1194352627638219e-02 2.1838874507444431e-02  4.0200218053131368e-03 -1.1344717472716481e-02 8.1396316576982861e-03  0.0000000000000000e+00 0.0000000000000000e+00 0.0000000000000000e+00  1.4033650920239888e-02 -1.8972817255829284e-02 1.3936469740212107e-02  2.4358248800921110e-02 -2.2750182793785993e-02 1.7743581975119795e-02  3.4558492232831715e-02 -2.4763212642374379e-02 1.9862304780355403e-02  4.4707675082017818e-02 -2.5790790720220936e-02 2.1051445815684963e-02  5.4912206515334544e-02 -2.6280515566828252e-02 2.1645733869580446e-02  7.2404502371503738e-03 -1.7856031878554928e-02 8.2724067889971796e-03  0.0000000000000000e+00 0.0000000000000000e+00 0.0000000000000000e+00  1.8559781250825493e-02 -2.4299891252702686e-02 1.4037618861744634e-02  2.7278458941417238e-02 -2.7583525757668360e-02 1.8023494298561902e-02  3.6494418209573901e-02 -2.9447456742420223e-02 2.0073596921448764e-02  4.5941398869256592e-02 -3.0505015449121767e-02 2.1246461227273208e-02  5.5688322799200274e-02 -3.1104262210841303e-02 2.1791065062121622e-02  3.6814200940112844e-03 1.3401293541164119e-02 5.5537362208153869e-03  9.3013238830842917e-03 1.9800493260198358e-02 5.6775125612895582e-03  0.0000000000000000e+00 0.0000000000000000e+00 0.0000000000000000e+00  0.0000000000000000e+00 0.0000000000000000e+00 0.0000000000000000e+00  1.3012809193396443e-02 2.0285320128605455e-02 9.8236508165089279e-03  1.7244913346529188e-02 2.5727808268611454e-02 1.0094806502513549e-02  2.3074053387899314e-02 2.4286584536965462e-02 1.2912786546283287e-02  2.5805930453654358e-02 2.9073020407724564e-02 1.3208687735757618e-02  3.3288726834576059e-02 2.6088812483571595e-02 1.4817431633856015e-02  3.5045091404835048e-02 3.0813736134251268e-0