<?xml version="1.0"?>
<VTKFile type="UnstructuredGrid"  version="0.1"  >
<UnstructuredGrid>
<Piece  NumberOfPoints="649" NumberOfCells="2662">
<Points>
<DataArray  type="Float64"  NumberOfComponents="3"  format="ascii">0 0 0  0.08333333333333333 0 0  0.08333333333333333 0.08333333333333333 0  0.08333333333333333 0.08333333333333333 0.08333333333333333  0.08333333333333333 0 0.08333333333333333  0 0 0.08333333333333333  0 0.08333333333333333 0  0 0.08333333333333333 0.08333333333333333  0.1666666666666667 0 0  0.1666666666666667 0.08333333333333333 0  0.1666666666666667 0.08333333333333333 0.08333333333333333  0.1666666666666667 0 0.08333333333333333  0.25 0 0  0.25 0.08333333333333333 0  0.25 0.08333333333333333 0.08333333333333333  0.25 0 0.08333333333333333  0.3333333333333333 0 0  0.3333333333333333 0.08333333333333333 0  0.3333333333333333 0.08333333333333333 0.08333333333333333  0.3333333333333333 0 0.08333333333333333  0.4166666666666667 0 0  0.4166666666666667 0.08333333333333333 0  0.4166666666666667 0.08333333333333333 0.08333333333333333  0.4166666666666667 0 0.08333333333333333  0.5 0 0  0.5 0.08333333333333333 0  0.5 0.08333333333333333 0.08333333333333333  0.5 0 0.08333333333333333  0.08333333333333333 0.1666666666666667 0  0.08333333333333333 0.1666666666666667 0.08333333333333333  0 0.1666666666666667 0  0 0.1666666666666667 0.08333333333333333  0.1666666666666667 0.1666666666666667 0  0.1666666666666667 0.1666666666666667 0.08333333333333333  0.25 0.1666666666666667 0  0.25 0.1666666666666667 0.08333333333333333  0.3333333333333333 0.1666666666666667 0  0.3333333333333333 0.1666666666666667 0.08333333333333333  0.4166666666666667 0.1666666666666667 0  0.4166666666666667 0.1666666666666667 0.08333333333333333  0.5 0.1666666666666667 0  0.5 0.1666666666666667 0.08333333333333333  0.08333333333333333 0.25 0  0.08333333333333333 0.25 0.08333333333333333  0 0.25 0  0 0.25 0.08333333333333333  0.1666666666666667 0.25 0  0.1666666666666667 0.25 0.08333333333333333  0.25 0.25 0  0.25 0.25 0.08333333333333333  0.3333333333333333 0.25 0  0.3333333333333333 0.25 0.08333333333333333  0.4166666666666667 0.25 0  0.4166666666666667 0.25 0.08333333333333333  0.5 0.25 0  0.5 0.25 0.08333333333333333  0.08333333333333333 0.3333333333333333 0  0.08333333333333333 0.3333333333333333 0.08333333333333333  0 0.3333333333333333 0  0 0.3333333333333333 0.08333333333333333  0.1666666666666667 0.3333333333333333 0  0.1666666666666667 0.3333333333333333 0.08333333333333333  0.25 0.3333333333333333 0  0.25 0.3333333333333333 0.08333333333333333  0.3333333333333333 0.3333333333333333 0  0.3333333333333333 0.3333333333333333 0.08333333333333333  0.4166666666666667 0.3333333333333333 0  0.4166666666666667 0.3333333333333333 0.08333333333333333  0.5 0.3333333333333333 0  0.5 0.3333333333333333 0.08333333333333333  0.08333333333333333 0.4166666666666667 0  0.08333333333333333 0.4166666666666667 0.08333333333333333  0 0.4166666666666667 0  0 0.4166666666666667 0.08333333333333333  0.1666666666666667 0.4166666666666667 0  0.1666666666666667 0.4166666666666667 0.08333333333333333  0.25 0.4166666666666667 0  0.25 0.4166666666666667 0.08333333333333333  0.3333333333333333 0.4166666666666667 0  0.3333333333333333 0.4166666666666667 0.08333333333333333  0.4166666666666667 0.4166666666666667 0  0.4166666666666667 0.4166666666666667 0.08333333333333333  0.5 0.4166666666666667 0  0.5 0.4166666666666667 0.08333333333333333  0.08333333333333333 0.5 0  0.08333333333333333 0.5 0.08333333333333333  0 0.5 0  0 0.5 0.08333333333333333  0.1666666666666667 0.5 0  0.1666666666666667 0.5 0.08333333333333333  0.25 0.5 0  0.25 0.5 0.08333333333333333  0.3333333333333333 0.5 0  0.3333333333333333 0.5 0.08333333333333333  0.4166666666666667 0.5 0  0.4166666666666667 0.5 0.08333333333333333  0.5 0.5 0  0.5 0.5 0.08333333333333333  0.08333333333333333 0.5833333333333334 0  0.08333333333333333 0.5833333333333334 0.08333333333333333  0 0.5833333333333334 0  0 0.5833333333333334 0.08333333333333333  0.1666666666666667 0.5833333333333334 0  0.1666666666666667 0.5833333333333334 0.08333333333333333  0.25 0.5833333333333334 0  0.25 0.5833333333333334 0.08333333333333333  0.3333333333333333 0.5833333333333334 0  0.3333333333333333 0.5833333333333334 0.08333333333333333  0.4166666666666667 0.5833333333333334 0  0.4166666666666667 0.5833333333333334 0.08333333333333333  0.5 0.5833333333333334 0  0.5 0.5833333333333334 0.08333333333333333  0.08333333333333333 0.6666666666666666 0  0.08333333333333333 0.6666666666666666 0.08333333333333333  0 0.6666666666666666 0  0 0.6666666666666666 0.08333333333333333  0.1666666666666667 0.6666666666666666 0  0.1666666666666667 0.6666666666666666 0.08333333333333333  0.25 0.6666666666666666 0  0.25 0.6666666666666666 0.08333333333333333  0.3333333333333333 0.6666666666666666 0  0.3333333333333333 0.6666666666666666 0.08333333333333333  0.4166666666666667 0.6666666666666666 0  0.4166666666666667 0.6666666666666666 0.08333333333333333  0.5 0.6666666666666666 0  0.5 0.6666666666666666 0.08333333333333333  0.08333333333333333 0.75 0  0.08333333333333333 0.75 0.08333333333333333  0 0.75 0  0 0.75 0.08333333333333333  0.1666666666666667 0.75 0  0.1666666666666667 0.75 0.08333333333333333  0.25 0.75 0  0.25 0.75 0.08333333333333333  0.3333333333333333 0.75 0  0.3333333333333333 0.75 0.08333333333333333  0.4166666666666667 0.75 0  0.4166666666666667 0.75 0.08333333333333333  0.5 0.75 0  0.5 0.75 0.08333333333333333  0.08333333333333333 0.8333333333333334 0  0.08333333333333333 0.8333333333333334 0.08333333333333333  0 0.8333333333333334 0  0 0.8333333333333334 0.08333333333333333  0.1666666666666667 0.8333333333333334 0  0.1666666666666667 0.8333333333333334 0.08333333333333333  0.25 0.8333333333333334 0  0.25 0.8333333333333334 0.08333333333333333  0.3333333333333333 0.8333333333333334 0  0.3333333333333333 0.8333333333333334 0.08333333333333333  0.4166666666666667 0.8333333333333334 0  0.4166666666666667 0.8333333333333334 0.08333333333333333  0.5 0.8333333333333334 0  0.5 0.8333333333333334 0.08333333333333333  0.08333333333333333 0.9166666666666666 0  0.08333333333333333 0.9166666666666666 0.08333333333333333  0 0.9166666666666666 0  0 0.9166666666666666 0.08333333333333333  0.1666666666666667 0.9166666666666666 0  0.1666666666666667 0.9166666666666666 0.08333333333333333  0.25 0.9166666666666666 0  0.25 0.9166666666666666 0.08333333333333333  0.3333333333333333 0.9166666666666666 0  0.3333333333333333 0.9166666666666666 0.08333333333333333  0.4166666666666667 0.9166666666666666 0  0.4166666666666667 0.9166666666666666 0.08333333333333333  0.5 0.9166666666666666 0  0.5 0.9166666666666666 0.08333333333333333  0.08333333333333333 1 0  0.08333333333333333 1 0.08333333333333333  0 1 0  0 1 0.08333333333333333  0.1666666666666667 1 0  0.1666666666666667 1 0.08333333333333333  0.25 1 0  0.25 1 0.08333333333333333  0.3333333333333333 1 0  0.3333333333333333 1 0.08333333333333333  0.4166666666666667 1 0  0.4166666666666667 1 0.08333333333333333  0.5 1 0  0.5 1 0.08333333333333333  0.08333333333333333 0.08333333333333333 0.1666666666666667  0.08333333333333333 0 0.1666666666666667  0 0 0.1666666666666667  0 0.08333333333333333 0.1666666666666667  0.1666666666666667 0.08333333333333333 0.1666666666666667  0.1666666666666667 0 0.1666666666666667  0.25 0.08333333333333333 0.1666666666666667  0.25 0 0.1666666666666667  0.3333333333333333 0.08333333333333333 0.1666666666666667  0.3333333333333333 0 0.1666666666666667  0.4166666666666667 0.08333333333333333 0.1666666666666667  0.4166666666666667 0 0.1666666666666667  0.5 0.08333333333333333 0.1666666666666667  0.5 0 0.1666666666666667  0.08333333333333333 0.1666666666666667 0.1666666666666667  0 0.1666666666666667 0.1666666666666667  0.1666666666666667 0.1666666666666667 0.1666666666666667  0.25 0.1666666666666667 0.1666666666666667  0.3333333333333333 0.1666666666666667 0.1666666666666667  0.4166666666666667 0.1666666666666667 0.1666666666666667  0.5 0.1666666666666667 0.1666666666666667  0.08333333333333333 0.25 0.1666666666666667  0 0.25 0.1666666666666667  0.1666666666666667 0.25 0.1666666666666667  0.25 0.25 0.1666666666666667  0.3333333333333333 0.25 0.1666666666666667  0.4166666666666667 0.25 0.1666666666666667  0.5 0.25 0.1666666666666667  0.08333333333333333 0.3333333333333333 0.1666666666666667  0 0.3333333333333333 0.1666666666666667  0.1666666666666667 0.3333333333333333 0.1666666666666667  0.25 0.3333333333333333 0.1666666666666667  0.3333333333333333 0.3333333333333333 0.1666666666666667  0.4166666666666667 0.3333333333333333 0.1666666666666667  0.5 0.3333333333333333 0.1666666666666667  0.08333333333333333 0.4166666666666667 0.1666666666666667  0 0.4166666666666667 0.1666666666666667  0.1666666666666667 0.4166666666666667 0.1666666666666667  0.25 0.4166666666666667 0.1666666666666667  0.3333333333333333 0.4166666666666667 0.1666666666666667  0.4166666666666667 0.4166666666666667 0.1666666666666667  0.5 0.4166666666666667 0.1666666666666667  0.08333333333333333 0.5 0.1666666666666667  0 0.5 0.1666666666666667  0.1666666666666667 0.5 0.1666666666666667  0.25 0.5 0.1666666666666667  0.3333333333333333 0.5 0.1666666666666667  0.4166666666666667 0.5 0.1666666666666667  0.5 0.5 0.1666666666666667  0.08333333333333333 0.5833333333333334 0.1666666666666667  0 0.5833333333333334 0.1666666666666667  0.1666666666666667 0.5833333333333334 0.1666666666666667  0.25 0.5833333333333334 0.1666666666666667  0.3333333333333333 0.5833333333333334 0.1666666666666667  0.4166666666666667 0.5833333333333334 0.1666666666666667  0.5 0.5833333333333334 0.1666666666666667  0.08333333333333333 0.6666666666666666 0.1666666666666667  0 0.6666666666666666 0.1666666666666667  0.1666666666666667 0.6666666666666666 0.1666666666666667  0.25 0.6666666666666666 0.1666666666666667  0.3333333333333333 0.6666666666666666 0.1666666666666667  0.4166666666666667 0.6666666666666666 0.1666666666666667  0.5 0.6666666666666666 0
[...]
<PointData  Vectors="f_35"> 
<DataArray  type="Float64"  Name="f_35"  NumberOfComponents="3" format="ascii">0.0000000000000000e+00 0.0000000000000000e+00 0.0000000000000000e+00  1.4511158442237047e-02 1.8269096246977031e-02 1.8269096246976885e-02  1.0352473557637697e-02 1.2825544375780911e-02 1.9597447837610246e-02  5.7056718480110692e-03 1.3532546925115701e-02 1.3532546925115779e-02  1.0352473557637666e-02 1.9597447837610197e-02 1.2825544375780911e-02  0.0000000000000000e+00 0.0000000000000000e+00 0.0000000000000000e+00  0.0000000000000000e+00 0.0000000000000000e+00 0.0000000000000000e+00  0.0000000000000000e+00 0.0000000000000000e+00 0.0000000000000000e+00  2.4623207407513985e-02 2.4333391724840652e-02 2.4333391724840534e-02  2.1094591697831507e-02 1.9723760955005505e-02 2.4907960523482393e-02  1.7417339580539950e-02 1.9556758574526649e-02 1.9556758574526618e-02  2.1094591697831497e-02 2.4907960523482313e-02 1.9723760955005727e-02  3.3395185030005596e-02 2.8151299377336333e-02 2.8151299377336403e-02  3.0844537320652881e-02 2.3700296812008755e-02 2.8521066711576823e-02  2.8288323464634946e-02 2.3731040086845252e-02 2.3731040086845286e-02  3.0844537320652943e-02 2.8521066711576816e-02 2.3700296812008723e-02  4.2610942461818894e-02 3.0440372208356686e-02 3.0440372208356638e-02  4.0901362211907696e-02 2.5872694881619286e-02 3.0662132957507519e-02  3.9281013021680168e-02 2.5823856326858914e-02 2.5823856326858980e-02  4.0901362211907724e-02 3.0662132957507558e-02 2.5872694881619376e-02  5.2454789601374896e-02 3.1818528242961226e-02 3.1818528242961136e-02  5.1326446573779778e-02 2.7048185132727529e-02 3.1952989485773305e-02  5.0267065760037685e-02 2.7006869525494311e-02 2.7006869525494349e-02  5.1326446573779667e-02 3.1952989485773284e-02 2.7048185132727599e-02  6.2915322652176642e-02 3.2628539254969655e-02 3.2628539254969779e-02  6.2182420560090726e-02 2.7655268774550539e-02 3.2707814116451281e-02  6.1507876638424705e-02 2.7620088879824433e-02 2.7620088879824332e-02  6.2182420560090809e-02 3.2707814116451184e-02 2.7655268774550608e-02  8.9894138590435671e-03 8.8975508765887831e-03 2.0682333121408405e-02  4.2301830302454296e-03 8.7323730399480031e-03 1.4270072616867038e-02  0.0000000000000000e+00 0.0000000000000000e+00 0.0000000000000000e+00  0.0000000000000000e+00 0.0000000000000000e+00 0.0000000000000000e+00  1.8894706361354860e-02 1.5097690394827399e-02 2.6159169509006597e-02  1.5212066149870319e-02 1.4743257127446870e-02 2.0562010526760710e-02  2.8688602347948931e-02 1.8878891015135731e-02 2.9535933750351503e-02  2.6154515764830806e-02 1.8594590927090062e-02 2.4639290045542449e-02  3.9144226796024327e-02 2.0963301154216761e-02 3.1379377992998746e-02  3.7597068668758664e-02 2.0698656395747649e-02 2.6422316372671128e-02  4.9994684425798942e-02 2.2018407607164548e-02 3.2431689747258359e-02  4.8999445815420685e-02 2.1819862652669615e-02 2.7406941840417819e-02  6.1214186495434822e-02 2.2496312297833308e-02 3.3014066181570739e-02  6.0598568559500410e-02 2.2353748668074980e-02 2.7868676002871750e-02  8.6226979189992711e-03 6.1829835576552123e-03 2.1432330507778857e-02  3.8296378845505442e-03 6.0109541097108764e-03 1.4952094872621844e-02  0.0000000000000000e+00 0.0000000000000000e+00 0.0000000000000000e+00  0.0000000000000000e+00 0.0000000000000000e+00 0.0000000000000000e+00  1.7733734467135137e-02 1.0887105458983184e-02 2.7282042652668991e-02  1.3939162605888079e-02 1.0537149029559476e-02 2.1626870168468378e-02  2.7204024081646579e-02 1.4013157487858807e-02 3.0607791948724792e-02  2.4687241343584042e-02 1.3643653195828562e-02 2.5637815229827905e-02  3.7694149601824725e-02 1.5815036388217820e-02 3.2233923855131984e-02  3.6207166830689579e-02 1.5482610337872991e-02 2.7224718916585833e-02  4.8759459157544219e-02 1.6723992393947791e-02 3.3049538193858405e-02  4.7836122176953100e-02 1.6460721680975794e-02 2.7990662307921306e-02  6.0238530852543042e-02 1.7108932703364586e-02 3.3432313856341912e-02  5.9690671324724137e-02 1.6917559548953298e-02 2.8261061903786154e-02  8.4901638480631113e-03 3.9806764448115347e-03 2.1931106301950935e-02  3.5894114624291803e-03 3.8447122084622992e-03 1.5416345650122754e-02  0.0000000000000000e+00 0.0000000000000000e+00 0.0000000000000000e+00  0.0000000000000000e+00 0.0000000000000000e+00 0.0000000000000000e+00  1.7136197321619147e-02 7.0839039553794196e-03 2.8096404466484887e-02  1.3239049854323467e-02 6.8029577475891201e-03 2.2410841577273462e-02  2.6279895485983359e-02 9.2658423548327550e-03 3.1460412798432931e-02  2.3758775207474311e-02 8.9635011023062316e-03 2.6462477971784092e-02  3.6666400602598313e-02 1.0579055725435530e-02 3.2966533226377985e-02  3.5216669917222124e-02 1.0297073362420951e-02 2.7942274914441061e-02  4.7803489663930027e-02 1.1254883000033095e-02 3.3609876195552335e-02  4.6940157352410333e-02 1.1024785492772778e-02 2.8537574446822707e-02  5.9434871275048796e-02 1.1536854443721553e-02 3.3827393598463734e-02  5.8946376101404088e-02 1.1366406445316604e-02 2.8645685502326070e-02  8.4401478712499457e-03 2.0228247727951182e-03 2.2220617146271687e-02  3.4792323362203038e-03 1.9675497300055333e-03 1.5683729642750069e-02  0.0000000000000000e+00 0.0000000000000000e+00 0.0000000000000000e+00  0.0000000000000000e+00 0.0000000000000000e+00 0.0000000000000000e+00  1.6847558813734641e-02 3.5502621120550438e-03 2.8580560666127141e-02  1.2891030564143403e-02 3.3992035019287385e-03 2.2880738057907472e-02  2.5778036717069467e-02 4.6567993373852496e-03 3.1992288275135526e-02  2.3243737743119889e-02 4.4954070100929125e-03 2.6985509503643538e-02  3.6062959748137835e-02 5.3393951226161475e-03 3.3443677832816314e-02  3.4633486735442892e-02 5.1844134414686955e-03 2.8413763998071197e-02  4.7209576643781365e-02 5.6963609166638864e-03 3.3987378588167950e-02  4.6384215986350640e-02 5.5675349533874418e-03 2.8909816425949680e-02  5.8914543543604335e-02 5.8461634004475585e-03 3.4100456332565726e-02  5.8465488088813050e-02 5.7491846135766037e-03 2.8914935657993732e-02  8.4208574321361727e-03 1.7073382553449125e-04 2.2325894296279247e-02  3.4405263930699912e-03 2.0700921343009884e-04 1.5781381537869808e-02  0.0000000000000000e+00 0.0000000000000000e+00 0.0000000000000000e+00  0.0000000000000000e+00 0.0000000000000000e+00 0.0000000000000000e+00  1.6750450644905397e-02 1.4853226406193242e-04 2.8747005559776658e-02  1.2771879525596112e-02 1.4472862675854814e-04 2.3042441190642481e-02  2.5609899733485510e-02 1.2986142627285390e-04 3.2174499190735721e-02  2.3069182772044391e-02 1.3739101978004211e-04 2.7165061411948511e-02  3.5858899114821749e-02 1.1392481352984820e-04 3.3607748295470308e-02  3.4435400414502333e-02 1.1915852363586438e-04 2.8575788611430585e-02  4.7006175031678220e-02 1.0380822073845412e-04 3.4117776118380135e-02  4.6193095788339453e-02 1.0802039333817280e-04 2.9038470655068531e-02  5.8734002785552193e-02 1.0049762265813348e-04 3.4195122584487765e-02  5.8298166153592020e-02 1.0364442269426770e-04 2.9008321357243291e-02  8.4167671643975081e-03 -1.6701499727160528e-03 2.2254202178033894e-02  3.4598170239572416e-03 -1.5408857872019871e-03 1.5715268745233376e-02  0.0000000000000000e+00 0.0000000000000000e+00 0.0000000000000000e+00  0.0000000000000000e+00 0.0000000000000000e+00 0.0000000000000000e+00  1.6811377411758931e-02 -3.2485195111087708e-03 2.8601164079120094e-02  1.2853597628074684e-02 -3.1046118106250078e-03 2.2898027253458745e-02  2.5747601635730887e-02 -4.3971123485169773e-03 3.2000007470337891e-02  2.3212665778818253e-02 -4.2204003259782592e-03 2.6991301554991361e-02  3.6043904176817652e-02 -5.1116836014449378e-03 3.3442333732461728e-02  3.4613419894463100e-02 -4.9472811854778991e-03 2.8410383433415350e-02  4.7200715417071194e-02 -5.4884196771111367e-03 3.3981368750874506e-02  4.6374153759201363e-02 -5.3520791716394909e-03 2.8902251871960782e-02  5.8910586644916406e-02 -5.6436083562106483e-03 3.4093539853399107e-02  5.8460062074750310e-02 -5.5412281658680958e-03 2.8907008385732846e-02  8.4360995506702029e-03 -3.5971755798801753e-03 2.1999786120506636e-02  3.5461484230719280e-03 -3.3794432296998011e-03 1.5478979659032903e-02  0.0000000000000000e+00 0.0000000000000000e+00 0.0000000000000000e+00  0.0000000000000000e+00 0.0000000000000000e+00 0.0000000000000000e+00  1.7060283871445831e-02 -6.7730053721839116e-03 2.8134508901202813e-02  1.3160747460563914e-02 -6.4977897859164503e-03 2.2442743447805905e-02  2.6221893852248067e-02 -9.0037077947902923e-03 3.1471808045386511e-02  2.3701122177007945e-02 -8.6900833645777217e-03 2.6469845691506361e-02  3.6634469038518171e-02 -1.0353236095970537e-02 3.2959963521534297e-02  3.5181320941411062e-02 -1.0064942837922308e-02 2.7933535461329182e-02  4.7789407271766886e-02 -1.1044406630541667e-02 3.3596859236098404e-02  4.6924523579820077e-02 -1.0810330082608127e-02 2.8521862228640758e-02  5.9428724641575455e-02 -1.1329189477942269e-02 3.3813829899633788e-02  5.8937553772011146e-02 -1.1156024084738677e-02 2.8630848338891488e-02  8.5418468227469145e-03 -5.7590003779846360e-03 2.1537453809201509e-02  3.7384004703306579e-03 -5.4642062682856611e-03 1.5051277882396737e-02  0.0000000000000000e+00 0.0000000000000000e+00 0.0000000000000000e+00  0.0000000000000000e+00 0.0000000000000000e+00 0.0000000000000000e+00  1.7606743231591265e-02 -1.0535881357731857e-02 2.7337851878039474e-02  1.3794037211959037e-02 -1.0207229882178950e-02 2.1671282182095037e-02  2.7137671857003883e-02 -1.3760046983862262e-02 3.0607929592450938e-02  2.4623396874166405e-02 -1.3384903752230094e-02 2.5635203550589087e-02  3.7658592652241099e-02 -1.5586640940241200e-02 3.2218211685733029e-02  3.6165890562096063e-02 -1.5255440550886809e-02 2.7210319782073812e-02  4.8748082814378840e-02 -1.6506953179121719e-02 3.3028252910535870e-02  4.7823216421875994e-02 -1.6245168915156472e-02 2.7968394389429559e-02  6.0231337712285865e-02 -1.6890987433482406e-02 3.3414215176725499e-02  5.9680637685669113e-02 -1.6701469987577419e-02 2.8242521243768078e-02  8.8215475974394216e-03 -8.2178829531213086e-03 2.0871348156124160e-02  4.1597702649287154e-03 -8.0139168106084652e-03 1.4414789090738204e-02  0.0000000000000000e+00 0.0000000000000000e+00 0.0000000000000000e+00  0.0000000000000000e+00 0.0000000000000000e+00 0.0000000000000000e+00  1.8755655995637627e-02 -1.4804567807690371e-02 2.6153927814570193e-02  1.5018644973404386e-02 -1.4538229620914150e-02 2.0614902821742026e-02  2.8617533528523816e-02 -1.8636206100961072e-02 2.9517466701979755e-02  2.6105640608095847e-02 -1.8342927163797280e-02 2.4615383194042287e-02  3.9135638535686461e-02 -2.0736601050953051e-02 3.1345130605015391e-02  3.7586585793465452e-02 -2.0484534213025971e-02 2.6393109457930372e-02  4.9988984658313418e-02 -2.1789929173407437e-02 3.2406554388587583e-02  4.8992661149101717e-02 -2.1594644112689135e-02 2.7385903051597459e-02  6.1205206354992825e-02 -2.2265272022964945e-02 3.2995897174041354e-02  6.0588627789408628e-02 -2.2126765662524160e-02 2.7852439099842908e-02  1.0293032752478412e-02 -1.2061120997201684e-02 1.9512532940331371e-02  5.6131547116241333e-03 -1.2130264321186836e-02 1.3597403678556655e-02  0.0000000000000000e+00 0.0000000000000000e+00 0.0000000000000000e+00  0.0000000000000000e+00 0.0000000000000000e+00 0.0000000000000000e+00  2.0950681471331511e-02 -1.9454446157816170e-02 2.4889784053693662e-02  1.7239977718922574e-02 -1.9599891871929703e-02 1.9586653408317119e-02  3.0910301809294247e-02 -2.3444657709439824e-02 2.8449971020161190e-02  2.8382374662959169e-02 -2.3478361121955234e-02 2.3726443914490091e-02  4.0920534894657905e-02 -2.5609657921829374e-02 3.0640570070284336e-02  3.9300040140557033e-02 -2.5594725617759505e-02 2.5808268156576716e-02  5.1328701305321120e-02 -2.6793649364681923e-02 3.1938181299573834e-02  5.0265937589306829e-02 -2.6769954969163453e-02 2.6997812624763827e-02  6.2165839599706292e-02 -2.7404784730510053e-02 3.2701325577649883e-02  6.1488990096714817e-02 -2.7381938598948451e-02 2.7614423175059369e-02  1.4291305848295735e-02 -1.7575075503256161e-02 1.9964864804455817e-02  8.5211233047083178e-03 -1.8783291364321376e-02 1.3985177537852887e-02  0.0000000000000000e+00 0.0000000000000000e+00 0.0000000000000000e+00  0.0000000000000000e+00 0.0000000000000000e+00 0.0000000000000000e+00  2.4959646033504729e-02 -2.4285874761193968e-02 2.4136388766207318e-02  2.1470548595238531e-02 -2.4876584430039858e-02 1.9065632402525380e-02  3.3425794527569774e-02 -2.7932397249748820e-02 2.8180617655100531e-02  3.0777932573811843e-02 -2.8304843819130999e-02 2.3883203169434861e-02  4.2610293581303721e-02 -3.0226811748339671e-02 3.0451753739950224e-02  4.0984973544890842e-02 -3.0401721294074490e-02 2.5840380636750915e-02  5.2425974989928632e-02 -3.1589550101567346e-02 3.1815372029639188e-02  5.1326688218612450e-02 -3.1707714729726569e-02 2.7055600224798450e-02  6.2857458026987931e-02 -3.2395419418720928e-02 3.2628315535152629e-02  6.2162234349628372e-02 -3.2461709562264178e-02 2.7659322430516241e-02  4.2301830302454565e-03 1.4270072616866988e-02 8.7323730399480395e-03  8.9894138590436191e-03 2.0682333121408530e-02 8.8975508765889392e-03  0.0000000000000000e+00 0.0000000000000000e+00 0.0000000000000000e+00  0.0000000000000000e+00 0.0000000000000000e+00 0.0000000000000000e+00  1.5212066149870189e-02 2.0562010526760748e-02 1.4743257127446934e-02  1.8894706361355054e-02 2.6159169509006559e-02 1.5097690394827241e-02  2.6154515764830806e-02 2.4639290045542453e-02 1.8594590927090000e-02  2.8688602347948691e-02 2.9535933750351507e-02 1.8878891015135808e-02  3.7597068668758643e-02 2.6422316372671100e-02 2.0698656395747594e-02  3.9144226796024376e-02 3.1379377992998676e-02 2.0963301154216688e-02  4.8999445815420768e-02 2.7406941840417844e-02 2.1819862652669567e-02  4.9994684425798887e-02 3.2431689747258394e-02 2.2018407607164545e-02  6.0598568559500465e-02 2.7868676002871660e-02 2.2353748668075039e-02  6.1214186495434947e-02 3.3014066181570816e-02 2.2496312297833172e-02  3.0301119927755816e-03 9.1880687902337627e-03 9.1880687902338581e-03  0.0000000000000000e+00 0.0000000000000000e+00 0.0000000000000000e+00  1.2999660684939829e-02 1.5372238807304341e-02 1.5372238807304239e-02  2.3942661216558535e-02 1.9211628645434856e-02 1.9211628645434811e-02  3.5860240621857491e-02 2.1124924985551422e-02 2.1124924985551467e-02  4.7706271435856602e-02 2.2115964583347133e-02 2.2115964583347112e-02  5.9691611096590137e-02 2.2536375152427596e-02 2.2536375152427561e-02  2.7031048390942134e-03 6.2376032398108348e-03 9.8044177893023658e-03  0.0000000000000000e+00 0.0000000000000000e+00 0.0000000000000000e+00  1.1676142583144283e-02 1.0905384669584817e-02 1.6175820583902333e-02  2.2418085459932457e-02 1.4000776633880049e-02 1.9974381930788786e-02  3.4404100106487173e-02 1.5754475874222729e-02 2.1759425650433227e-02  4.6503500476981638e-02 1.6650116422678614e-02 2.2592130989215711e-02  5.8768596421914079e-02 1.7035972954394629e-02 2.2859671304253964e-02  2.4790301730469172e-03 3.9304408876367743e-03 1.0254973028049867e-02  0.0000000000000000e+00 0.0000000000000000e+00 0.0000000000000000e+00  1.0976426737869485e-02 6.9729802632383237e-03 1.6821575058098424e-02  2.1468022337877927e-02 9.1486902731706711e-03 2.0649775650457149e-02  3.3368861104089181e-02 1.0446042638163268e-02 2.2356511976964366e-02  4.5578895597181548e-02 1.1130247694214352e-02 2.3052413470596160e-02  5.8008530313940626e-02 1.1433766517131513e-02 2.3186412240098514e-02  2.3816994344449199e-03 1.9957511763618457e-03 1.0529483713607282e-02  0.0000000000000000e+00 0.0000000000000000e+00 0.0000000000000000e+00  1.0638687598567446e-02 3.4717339006006430e-03 1.7232276957552223e-02  2.0939403741309207e-02 4.5797809724150325e-03 2.1092392112830847e-02  3.2763403007672422e-02 5.2530011408550674e-03 2.2755823123664577e-02  4.5006805363662236e-02 5.6180737421118723e-03 2.3370029291256447e-02  5.7517260369835760e-02 5.7820219157906283e-03 2.3418003584939378e-02  2.3470690812513492e-03 2.0671587008482318e-04 1.0631073444637724e-02  0.0000000000000000e+00 0.0000000000000000e+00 0.0000000000000000e+00  1.0522635022608961e-02 1.5457057597971247e-04 1.7374672297168783e-02  2.0761184146211035e-02 1.5460146604460501e-04 2.1243315915365043e-02  3.2558703266073644e-02 1.3304292054395017e-04 2.2891883031320354e-02  4.4809155451663696e-02 1.2001964077932884e-04 2.3478851515744231e-02  5.7345157862684196e-02 1.1235691832870004e-04 2.3497371259548368e-02  2.3652805469991868e-03 -1.5667764437477829e-03 1.0563279232671752e-02  0.0000000000000000e+00 0.0000000000000000e+00 0.0000000000000000e+00  1.0606942540382785e-02 -3.1543990273867370e-03 1.7243334423038905e-02  2.0910196829188345e-02 -4.2690714682860949e-03 2.1088689887548584e-02  3.2741481206789207e-02 -4.9889158682986335e-03 2.2744866653771137e-02  4.4992682843407988e-02 -5.3800603746748873e-03 2.3357375502994840e-02  5.7507465994393790e-02 -5.5581922199538511e-03 2.3406634794930756e-02  2.4424487330953659e-03 -3.4568698699424787e-03 1.0322782593226930e-02  0.0000000000000000e+00 0.0000000000000000e+00 0.0000000000000000e+00  1.0914444611692921e-02 -6.6470874714110728e-03 1.6840382287109650e-02  2.1412689374543062e-02 -8.8417695467943730e-03 2.0639460631379936e-02  3.3326676481354560e-02 -1.0191009430468743e-02 2.2333210789483551e-02  4.5556056689823765e-02 -1.0899412454465743e-02 2.3026830897762866e-02  5.7991260194032467e-02 -1.1212947287376122e-02 2.3165403305296317e-02  2.6165311867688873e-03 -5.6650394417698908e-03 9.9056123214232052e-03  0.0000000000000000e+00 0.0000000000000000e+00 0.0000000000000000e+00  1.1544470950462434e-02 -1.0538697594660182e-02 1.6186973417034893e-02  2.2361715887586703e-02 -1.3708317572409486e-02 1.9947582021176073e-02  3.4347787128709978e-02 -1.5517600248466209e-02 2.1726672389519072e-02  4.6480658677217714e-02 -1.6428058603679050e-02 2.2557975314515769e-02  5.8747936952142525e-02 -1.6819276044649296e-02 2.2833586829339954e-02  2.9809215629127963e-03 -8.4309026311263670e-03 9.3356192443742724e-03  0.0000000000000000e+00 0.0000000000000000e+00 0.0000000000000000e+00  1.2749515446220598e-02 -1.5174914637304398e-02 1.5381061720006153e-02  2.3902444764422125e-02 -1.8938707055637136e-02 1.9156038971987359e-02  3.5825926534739032e-02 -2.0935055265755440e-02 2.1080418400920026e-02  4.7688580006795003e-02 -2.1901267774068148e-02 2.2086165604983873e-02  5.9673481201026189e-02 -2.2322182362446041e-02 2.2514796137526202e-02  4.2419221993971476e-03 -1.2965525057596548e-02 8.8048026608253185e-03  0.0000000000000000e+00 0.0000000000000000e+00 0.0000000000000000e+00  1.5016833363052750e-02 -2.0680199251507592e-02 1.4725716645114652e-02  2.6272154026551909e-02 -2.4371260474946244e-02 1.8603085237048615e-02  3.7609143869907297e-02 -2.6237626437222900e-02 2.0683003378558919e-02  4.8993755062045327e-02 -2.7196219914310853e-02 2.1821955776816004e-02  6.0578960843352583e-02 -2.7650095015181706e-02 2.2353968529438092e-02  7.1424338559608596e-03 -1.9773214942048270e-02 8.9389451695166267e-03  0.0000000000000000e+00 0.0000000000000000e+00 0.0000000000000000e+00  1.9413558734251771e-02 -2.6330449036389113e-02 1.4917062446398840e-02  2.8653410402323946e-02 -2.9414448286115405e-02 1.8970532502384972e-02  3.9243114107747057e-02 -3.1182885977785714e-02 2.0949629440054934e-02  4.9971866789840086e-02 -3.2231314248214522e-02 2.2052245469820937e-02  6.1193215983396790e-02 -3.2791902324016228e-02 2.2512591242779711e-02  3.8296378845505074e-03 1.4952094872621818e-02 6.0109541097107819e-03  8.6226979189992035e-03 2.1432330507778947e-02 6.1829835576551386e-03  0.0000000000000000e+00 0.0000000000000000e+00 0.0000000000000000e+00  0.0000000000000000e+00 0.0000000000000000e+00 0.0000000000000000e+00  1.3939162605888046e-02 2.1626870168468319e-02 1.0537149029559326e-02  1.7733734467135109e-02 2.7282042652668988e-02 1.0887105458983247e-02  2.4687241343584077e-02 2.5637815229827950e-02 1.3643653195828625e-02  2.7204024081646610e-02 3.0607791948724747e-02 1.4013157487858835e-02  3.6207166830689592e-02 2.7224718916585882e-02 1.5482610337873031e-02  3.7694149601824697e-02 3.2233923855131963e-0