<?xml version="1.0"?>
<VTKFile type="UnstructuredGrid"  version="0.1"  >
<UnstructuredGrid>
<Piece  NumberOfPoints="51" NumberOfCells="74">
<Points>
<DataArray  type="Float64"  NumberOfComponents="3"  format="ascii">0 0.1666666666666667 0  0 0.25 0  0.08333333333333333 0.25 0  0.08333333333333333 0.3333333333333333 0  0 0.3333333333333333 0  0.1666666666666667 0.25 0  0.1666666666666667 0.3333333333333333 0  0.25 0.3333333333333333 0  0.08333333333333333 0.4166666666666667 0  0 0.4166666666666667 0  0.1666666666666667 0.4166666666666667 0  0.25 0.4166666666666667 0  0.08333333333333333 0.5 0  0 0.5 0  0.1666666666666667 0.5 0  0.25 0.5 0  0.08333333333333333 0.5833333333333334 0  0 0.5833333333333334 0  0.1666666666666667 0.5833333333333334 0  0.25 0.5833333333333334 0  0.3333333333333333 0.5833333333333334 0  0.08333333333333333 0.6666666666666666 0  0 0.6666666666666666 0  0.1666666666666667 0.6666666666666666 0  0.25 0.6666666666666666 0  0.3333333333333333 0.6666666666666666 0  0.4166666666666667 0.6666666666666666 0  0.08333333333333333 0.75 0  0 0.75 0  0.1666666666666667 0.75 0  0.25 0.75 0  0.3333333333333333 0.75 0  0.4166666666666667 0.75 0  0.08333333333333333 0.8333333333333334 0  0 0.8333333333333334 0  0.1666666666666667 0.8333333333333334 0  0.25 0.8333333333333334 0  0.3333333333333333 0.8333333333333334 0  0.4166666666666667 0.8333333333333334 0  0.08333333333333333 0.9166666666666666 0  0 0.9166666666666666 0  0.1666666666666667 0.9166666666666666 0  0.25 0.9166666666666666 0  0.3333333333333333 0.9166666666666666 0  0.4166666666666667 0.9166666666666666 0  0.08333333333333333 1 0  0 1 0  0.1666666666666667 1 0  0.25 1 0  0.3333333333333333 1 0  0.4166666666666667 1 0  </DataArray>
</Points>
<Cells>
<DataArray  type="UInt32"  Name="connectivity"  format="ascii">0 1 2  1 2 3  1 4 3  2 5 6  2 3 6  5 6 7  4 3 8  4 9 8  3 6 10  3 8 10  6 7 11  6 10 11  9 8 12  9 13 12  8 10 14  8 12 14  10 11 15  10 14 15  13 12 16  13 17 16  12 14 18  12 16 18  14 15 19  14 18 19  15 19 20  17 16 21  17 22 21  16 18 23  16 21 23  18 19 24  18 23 24  19 20 25  19 24 25  20 25 26  22 21 27  22 28 27  21 23 29  21 27 29  23 24 30  23 29 30  24 25 31  24 30 31  25 26 32  25 31 32  28 27 33  28 34 33  27 29 35  27 33 35  29 30 36  29 35 36  30 31 37  30 36 37  31 32 38  31 37 38  34 33 39  34 40 39  33 35 41  33 39 41  35 36 42  35 41 42  36 37 43  36 42 43  37 38 44  37 43 44  40 39 45  40 46 45  39 41 47  39 45 47  41 42 48  41 47 48  42 43 49  42 48 49  43 44 50  43 49 50  </DataArray>
<DataArray  type="UInt32"  Name="offsets"  format="ascii">3 6 9 12 15 18 21 24 27 30 33 36 39 42 45 48 51 54 57 60 63 66 69 72 75 78 81 84 87 90 93 96 99 102 105 108 111 114 117 120 123 126 129 132 135 138 141 144 147 150 153 156 159 162 165 168 171 174 177 180 183 186 189 192 195 198 201 204 207 210 213 216 219 222 </DataArray>
<DataArray  type="UInt8"  Name="types"  format="ascii">5 5 5 5 5 5 5 5 5 5 5 5 5 5 5 5 5 5 5 5 5 5 5 5 5 5 5 5 5 5 5 5 5 5 5 5 5 5 5 5 5 5 5 5 5 5 5 5 5 5 5 5 5 5 5 5 5 5 5 5 5 5 5 5 5 5 5 5 5 5 5 5 5 5 </DataArray>
</Cells>
<PointData  Vectors="f_32"> 
<DataArray  type="Float64"  Name="f_32"  NumberOfComponents="3" format="ascii">0.0000000000000000e+00 0.0000000000000000e+00 0.0000000000000000e+00  0.0000000000000000e+00 0.0000000000000000e+00 0.0000000000000000e+00  1.8313572199030318e-03 8.3154648048508611e-03 0.0000000000000000e+00  1.6419071444805685e-03 5.4078045964874458e-03 0.0000000000000000e+00  0.0000000000000000e+00 0.0000000000000000e+00 0.0000000000000000e+00  6.8308017520412314e-03 1.5009280569766829e-02 0.0000000000000000e+00  6.1005739734290299e-03 9.7226152892946876e-03 0.0000000000000000e+00  1.2387201908942906e-02 1.3123169969784297e-02 0.0000000000000000e+00  1.5525433302915059e-03 2.8248001739065959e-03 0.0000000000000000e+00  0.0000000000000000e+00 0.0000000000000000e+00 0.0000000000000000e+00  5.7271279189699950e-03 4.9356898592267072e-03 0.0000000000000000e+00  1.1696116899342853e-02 6.6738908935552264e-03 0.0000000000000000e+00  1.5154004130253976e-03 3.8462955109273633e-04 0.0000000000000000e+00  0.0000000000000000e+00 0.0000000000000000e+00 0.0000000000000000e+00  5.5916741907771472e-03 3.5870525706115683e-04 0.0000000000000000e+00  1.1457172430784078e-02 4.1467712261989196e-04 0.0000000000000000e+00  1.5215236338493704e-03 -2.0330309944150719e-03 0.0000000000000000e+00  0.0000000000000000e+00 0.0000000000000000e+00 0.0000000000000000e+00  5.6599582725065847e-03 -4.2053152754070759e-03 0.0000000000000000e+00  1.1612594639758828e-02 -5.8347266321191870e-03 0.0000000000000000e+00  1.8961552739176241e-02 -6.9699962369968536e-03 0.0000000000000000e+00  1.5737007328208603e-03 -4.5467666787238261e-03 0.0000000000000000e+00  0.0000000000000000e+00 0.0000000000000000e+00 0.0000000000000000e+00  5.9588431664943063e-03 -8.9615672932102305e-03 0.0000000000000000e+00  1.2202337189223629e-02 -1.2264914445661770e-02 0.0000000000000000e+00  1.9758047284033263e-02 -1.4489049653154975e-02 0.0000000000000000e+00  2.8051986194870253e-02 -1.5777138046418143e-02 0.0000000000000000e+00  1.7115886636015743e-03 -7.3285563285119129e-03 0.0000000000000000e+00  0.0000000000000000e+00 0.0000000000000000e+00 0.0000000000000000e+00  6.6194731129924312e-03 -1.4158013216433221e-02 0.0000000000000000e+00  1.3372711408178761e-02 -1.9053984952227463e-02 0.0000000000000000e+00  2.1216978057227796e-02 -2.2185965785677102e-02 0.0000000000000000e+00  2.9566140660640207e-02 -2.3932167671798812e-02 0.0000000000000000e+00  2.0786953874508849e-03 -1.0668520209536292e-02 0.0000000000000000e+00  0.0000000000000000e+00 0.0000000000000000e+00 0.0000000000000000e+00  7.9564447624278847e-03 -2.0122576078729013e-02 0.0000000000000000e+00  1.5403201084755245e-02 -2.6322023711616141e-02 0.0000000000000000e+00  2.3459915702244257e-02 -3.0012305050624948e-02 0.0000000000000000e+00  3.1679219864862170e-02 -3.1987210423684971e-02 0.0000000000000000e+00  3.2497932455129263e-03 -1.5483380523465807e-02 0.0000000000000000e+00  0.0000000000000000e+00 0.0000000000000000e+00 0.0000000000000000e+00  1.0922398177120039e-02 -2.7269251592485801e-02 0.0000000000000000e+00  1.8874009388357784e-02 -3.3875187574441502e-02 0.0000000000000000e+00  2.6568988135978331e-02 -3.7648976301089834e-02 0.0000000000000000e+00  3.4210238639285982e-02 -3.9665675110946576e-02 0.0000000000000000e+00  7.9841455968057660e-03 -2.3812702327075205e-02 0.0000000000000000e+00  0.0000000000000000e+00 0.0000000000000000e+00 0.0000000000000000e+00  1.7555158088874326e-02 -3.4578467309721972e-02 0.0000000000000000e+00  2.3692386281711046e-02 -4.0738163145003191e-02 0.0000000000000000e+00  2.9954572320673497e-02 -4.4451135801979659e-02 0.0000000000000000e+00  3.6476007366221731e-02 -4.6611792264302031e-02 0.0000000000000000e+00  </DataArray> 
</PointData> 
</Piece>
</UnstructuredGrid>
</VTKFile>