<?xml version="1.0"?>
<VTKFile type="UnstructuredGrid"  version="0.1"  >
<UnstructuredGrid>
<Piece  NumberOfPoints="629" NumberOfCells="2557">
<Points>
<DataArray  type="Float64"  NumberOfComponents="3"  format="ascii">0.5 0 0.4166666666666667  0.5833333333333334 0 0.4166666666666667  0.5833333333333334 0 0.5  0.5833333333333334 0.08333333333333333 0.5  0.5 0 0.5  0.5 0.08333333333333333 0.5  0.6666666666666666 0 0.5  0.6666666666666666 0.08333333333333333 0.5  0.5833333333333334 0.08333333333333333 0.5833333333333334  0.5833333333333334 0 0.5833333333333334  0.5 0 0.5833333333333334  0.5 0.08333333333333333 0.5833333333333334  0.6666666666666666 0.08333333333333333 0.5833333333333334  0.6666666666666666 0 0.5833333333333334  0.75 0 0.5  0.75 0.08333333333333333 0.5  0.75 0.08333333333333333 0.5833333333333334  0.75 0 0.5833333333333334  0.8333333333333334 0 0.5  0.8333333333333334 0.08333333333333333 0.5  0.8333333333333334 0.08333333333333333 0.5833333333333334  0.8333333333333334 0 0.5833333333333334  0.9166666666666666 0 0.5  0.9166666666666666 0.08333333333333333 0.5  0.9166666666666666 0.08333333333333333 0.5833333333333334  0.9166666666666666 0 0.5833333333333334  1 0 0.5  1 0.08333333333333333 0.5  1 0.08333333333333333 0.5833333333333334  1 0 0.5833333333333334  0.5833333333333334 0.1666666666666667 0.5  0.5833333333333334 0.1666666666666667 0.5833333333333334  0.5 0.1666666666666667 0.5  0.5 0.1666666666666667 0.5833333333333334  0.6666666666666666 0.1666666666666667 0.5  0.6666666666666666 0.1666666666666667 0.5833333333333334  0.75 0.1666666666666667 0.5  0.75 0.1666666666666667 0.5833333333333334  0.8333333333333334 0.1666666666666667 0.5  0.8333333333333334 0.1666666666666667 0.5833333333333334  0.9166666666666666 0.1666666666666667 0.5  0.9166666666666666 0.1666666666666667 0.5833333333333334  1 0.1666666666666667 0.5  1 0.1666666666666667 0.5833333333333334  0.5833333333333334 0.25 0.5  0.5833333333333334 0.25 0.5833333333333334  0.5 0.25 0.5  0.5 0.25 0.5833333333333334  0.6666666666666666 0.25 0.5  0.6666666666666666 0.25 0.5833333333333334  0.75 0.25 0.5  0.75 0.25 0.5833333333333334  0.8333333333333334 0.25 0.5  0.8333333333333334 0.25 0.5833333333333334  0.9166666666666666 0.25 0.5  0.9166666666666666 0.25 0.5833333333333334  1 0.25 0.5  1 0.25 0.5833333333333334  0.5833333333333334 0.3333333333333333 0.5  0.5833333333333334 0.3333333333333333 0.5833333333333334  0.5 0.3333333333333333 0.5  0.5 0.3333333333333333 0.5833333333333334  0.6666666666666666 0.3333333333333333 0.5  0.6666666666666666 0.3333333333333333 0.5833333333333334  0.75 0.3333333333333333 0.5  0.75 0.3333333333333333 0.5833333333333334  0.8333333333333334 0.3333333333333333 0.5  0.8333333333333334 0.3333333333333333 0.5833333333333334  0.9166666666666666 0.3333333333333333 0.5  0.9166666666666666 0.3333333333333333 0.5833333333333334  1 0.3333333333333333 0.5  1 0.3333333333333333 0.5833333333333334  0.5833333333333334 0.4166666666666667 0.5  0.5833333333333334 0.4166666666666667 0.5833333333333334  0.5 0.4166666666666667 0.5  0.5 0.4166666666666667 0.5833333333333334  0.6666666666666666 0.4166666666666667 0.5  0.6666666666666666 0.4166666666666667 0.5833333333333334  0.75 0.4166666666666667 0.5  0.75 0.4166666666666667 0.5833333333333334  0.8333333333333334 0.4166666666666667 0.5  0.8333333333333334 0.4166666666666667 0.5833333333333334  0.9166666666666666 0.4166666666666667 0.5  0.9166666666666666 0.4166666666666667 0.5833333333333334  1 0.4166666666666667 0.5  1 0.4166666666666667 0.5833333333333334  0.5833333333333334 0.5 0.5  0.5833333333333334 0.5 0.5833333333333334  0.5 0.5 0.5  0.5 0.5 0.5833333333333334  0.6666666666666666 0.5 0.5  0.6666666666666666 0.5 0.5833333333333334  0.75 0.5 0.5  0.75 0.5 0.5833333333333334  0.8333333333333334 0.5 0.5  0.8333333333333334 0.5 0.5833333333333334  0.9166666666666666 0.5 0.5  0.9166666666666666 0.5 0.5833333333333334  1 0.5 0.5  1 0.5 0.5833333333333334  0.5833333333333334 0.5833333333333334 0.5  0.5833333333333334 0.5833333333333334 0.5833333333333334  0.5 0.5833333333333334 0.5  0.5 0.5833333333333334 0.5833333333333334  0.6666666666666666 0.5833333333333334 0.5  0.6666666666666666 0.5833333333333334 0.5833333333333334  0.75 0.5833333333333334 0.5  0.75 0.5833333333333334 0.5833333333333334  0.8333333333333334 0.5833333333333334 0.5  0.8333333333333334 0.5833333333333334 0.5833333333333334  0.9166666666666666 0.5833333333333334 0.5  0.9166666666666666 0.5833333333333334 0.5833333333333334  1 0.5833333333333334 0.5  1 0.5833333333333334 0.5833333333333334  0.5833333333333334 0.6666666666666666 0.5  0.5833333333333334 0.6666666666666666 0.5833333333333334  0.5 0.6666666666666666 0.5  0.5 0.6666666666666666 0.5833333333333334  0.6666666666666666 0.6666666666666666 0.5  0.6666666666666666 0.6666666666666666 0.5833333333333334  0.75 0.6666666666666666 0.5  0.75 0.6666666666666666 0.5833333333333334  0.8333333333333334 0.6666666666666666 0.5  0.8333333333333334 0.6666666666666666 0.5833333333333334  0.9166666666666666 0.6666666666666666 0.5  0.9166666666666666 0.6666666666666666 0.5833333333333334  1 0.6666666666666666 0.5  1 0.6666666666666666 0.5833333333333334  0.5833333333333334 0.75 0.5  0.5833333333333334 0.75 0.5833333333333334  0.5 0.75 0.5  0.5 0.75 0.5833333333333334  0.6666666666666666 0.75 0.5  0.6666666666666666 0.75 0.5833333333333334  0.75 0.75 0.5  0.75 0.75 0.5833333333333334  0.8333333333333334 0.75 0.5  0.8333333333333334 0.75 0.5833333333333334  0.9166666666666666 0.75 0.5  0.9166666666666666 0.75 0.5833333333333334  1 0.75 0.5  1 0.75 0.5833333333333334  0.5833333333333334 0.8333333333333334 0.5  0.5833333333333334 0.8333333333333334 0.5833333333333334  0.5 0.8333333333333334 0.5  0.5 0.8333333333333334 0.5833333333333334  0.6666666666666666 0.8333333333333334 0.5  0.6666666666666666 0.8333333333333334 0.5833333333333334  0.75 0.8333333333333334 0.5  0.75 0.8333333333333334 0.5833333333333334  0.8333333333333334 0.8333333333333334 0.5  0.8333333333333334 0.8333333333333334 0.5833333333333334  0.9166666666666666 0.8333333333333334 0.5  0.9166666666666666 0.8333333333333334 0.5833333333333334  1 0.8333333333333334 0.5  1 0.8333333333333334 0.5833333333333334  0.5833333333333334 0.9166666666666666 0.5  0.5833333333333334 0.9166666666666666 0.5833333333333334  0.5 0.9166666666666666 0.5  0.5 0.9166666666666666 0.5833333333333334  0.6666666666666666 0.9166666666666666 0.5  0.6666666666666666 0.9166666666666666 0.5833333333333334  0.75 0.9166666666666666 0.5  0.75 0.9166666666666666 0.5833333333333334  0.8333333333333334 0.9166666666666666 0.5833333333333334  0.9166666666666666 0.9166666666666666 0.5833333333333334  1 0.9166666666666666 0.5833333333333334  0.5833333333333334 1 0.5  0.5833333333333334 1 0.5833333333333334  0.5 1 0.5  0.5 1 0.5833333333333334  0.6666666666666666 1 0.5  0.6666666666666666 1 0.5833333333333334  0.75 1 0.5  0.75 1 0.5833333333333334  0.8333333333333334 1 0.5833333333333334  0.5833333333333334 0.08333333333333333 0.6666666666666666  0.5833333333333334 0 0.6666666666666666  0.5 0 0.6666666666666666  0.5 0.08333333333333333 0.6666666666666666  0.6666666666666666 0.08333333333333333 0.6666666666666666  0.6666666666666666 0 0.6666666666666666  0.75 0.08333333333333333 0.6666666666666666  0.75 0 0.6666666666666666  0.8333333333333334 0.08333333333333333 0.6666666666666666  0.8333333333333334 0 0.6666666666666666  0.9166666666666666 0.08333333333333333 0.6666666666666666  0.9166666666666666 0 0.6666666666666666  1 0.08333333333333333 0.6666666666666666  1 0 0.6666666666666666  0.5833333333333334 0.1666666666666667 0.6666666666666666  0.5 0.1666666666666667 0.6666666666666666  0.6666666666666666 0.1666666666666667 0.6666666666666666  0.75 0.1666666666666667 0.6666666666666666  0.8333333333333334 0.1666666666666667 0.6666666666666666  0.9166666666666666 0.1666666666666667 0.6666666666666666  1 0.1666666666666667 0.6666666666666666  0.5833333333333334 0.25 0.6666666666666666  0.5 0.25 0.6666666666666666  0.6666666666666666 0.25 0.6666666666666666  0.75 0.25 0.6666666666666666  0.8333333333333334 0.25 0.6666666666666666  0.9166666666666666 0.25 0.6666666666666666  1 0.25 0.6666666666666666  0.5833333333333334 0.3333333333333333 0.6666666666666666  0.5 0.3333333333333333 0.6666666666666666  0.6666666666666666 0.3333333333333333 0.6666666666666666  0.75 0.3333333333333333 0.6666666666666666  0.8333333333333334 0.3333333333333333 0.6666666666666666  0.9166666666666666 0.3333333333333333 0.6666666666666666  1 0.3333333333333333 0.6666666666666666  0.5833333333333334 0.4166666666666667 0.6666666666666666  0.5 0.4166666666666667 0.6666666666666666  0.6666666666666666 0.4166666666666667 0.6666666666666666  0.75 0.4166666666666667 0.6666666666666666  0.8333333333333334 0.4166666666666667 0.6666666666666666  0.9166666666666666 0.4166666666666667 0.6666666666666666  1 0.4166666666666667 0.6666666666666666  0.5833333333333334 0.5 0.6666666666666666  0.5 0.5 0.6666666666666666  0.6666666666666666 0.5 0.6666666666666666  0.75 0.5 0.6666666666666666  0.8333333333333334 0.5 0.6666666666666666  0.9166666666666666 0.5 0.6666666666666666  1 0.5 0.6666666666666666  0.5833333333333334 0.5833333333333334 0.6666666666666666  0.5 0.5833333333333334 0.6666666666666666  0.6666666666666666 0.5833333333333334 0.6666666666666666  0.75 0.5833333333333334 0.6666666666666666  0.8333333333333334 0.5833333333333334 0.6666666666666666  0.9166666666666666 0.5833333333333334 0.6666666666666666  1 0.5833333333333334 0.6666666666666666  0.5833333333333334 0.6666666666666666 0.6666666666666666  0.5 0.6666666666666666 0.6666666666666666  0.6666666666666666 0.6666666666666666 0.6666666666666666  0.75 0.6666666666666666 0.6666666666666666  0.8333333333333334 0.6666666666666666 0.6666666666666666  0.9166666666666666 0.6666666666666666 0.6666666666666666  1 0.6666666666666666 0.6666666666666666  0.5833333333333334 0.75 0.6666666666666666  0.5 0.75 0.6666666666666666  0.6666666666666666 0.75
[...]
<PointData  Vectors="f_35"> 
<DataArray  type="Float64"  Name="f_35"  NumberOfComponents="3" format="ascii">5.3271961425755188e-02 3.2872446481236266e-02 5.8204859466424721e-03  6.3764774449611594e-02 3.2876549235330760e-02 5.8995846326900837e-03  6.3566430430132770e-02 3.2944162745024076e-02 3.4484605378439604e-04  6.3228880793853429e-02 2.7957371335114875e-02 3.4431066407352400e-04  5.3053315677984436e-02 3.2968964408543640e-02 3.2462829575299342e-04  5.2459976958329511e-02 2.8089921233428232e-02 3.2452477681895906e-04  7.4280678144296494e-02 3.2823957012291356e-02 3.6748363069962132e-04  7.4081916791144564e-02 2.7739300686040469e-02 3.6664493763239253e-04  6.3360163202525716e-02 2.7889852630579384e-02 -5.1420174786119561e-03  6.3711518185461849e-02 3.2875846044476603e-02 -5.2090008198527847e-03  5.3218000590725095e-02 3.2874372083444313e-02 -5.1694903760624361e-03  5.2610919924118281e-02 2.7996358394971436e-02 -5.0763121908060146e-03  7.4191662069043596e-02 2.7696031171488857e-02 -5.1341704880454898e-03  7.4403302259265086e-02 3.2780376552784436e-02 -5.1760126397237191e-03  8.5109662432927655e-02 3.2692743952708131e-02 3.9274725182498408e-04  8.4973130773722594e-02 2.7530786059007273e-02 3.9148505651158752e-04  8.5064714394684771e-02 2.7508756240643334e-02 -5.0958796214567699e-03  8.5213230593611189e-02 3.2671375707090430e-02 -5.1147533587562882e-03  9.6000829979306812e-02 3.2602422256807415e-02 4.1881155661574140e-04  9.5882640312573902e-02 2.7390695626318386e-02 4.1800849654104340e-04  9.5961522359412410e-02 2.7386898280876863e-02 -5.0602439341335759e-03  9.6091263917468958e-02 3.2600877039153035e-02 -5.0589241949921719e-03  1.0692549078293645e-01 3.2575327943685034e-02 4.5224480995395295e-04  1.0681200704507220e-01 2.7356471766922807e-02 4.4834313808686700e-04  1.0688338977877469e-01 2.7368776541632063e-02 -5.0571744304091061e-03  1.0701033158874834e-01 3.2593823853835760e-02 -5.0352809399415071e-03  1.1787632616516511e-01 3.2621092406176722e-02 4.6915636269403245e-04  1.1778187419950245e-01 2.7454111001108571e-02 4.7797991612554127e-04  1.1784472916549267e-01 2.7478878892774054e-02 -5.1349005394971167e-03  1.1795302026249439e-01 3.2657608704774257e-02 -5.1238160941942876e-03  6.2404666115937528e-02 2.2711143594514129e-02 3.4872861457871878e-04  6.2535335901590189e-02 2.2651169369810150e-02 -5.1561490329686353e-03  5.1322231667756700e-02 2.2821800645711782e-02 3.3077128707298474e-04  5.1473811021550631e-02 2.2739140988247399e-02 -5.0980857227482012e-03  7.3478350334837753e-02 2.2494383124521740e-02 3.6923228345019186e-04  7.3586475100451132e-02 2.2455502726613331e-02 -5.1429859002584547e-03  8.4515525438220274e-02 2.2279059222065828e-02 3.9251590901574361e-04  8.4604619893776017e-02 2.2258480019090431e-02 -5.1012659721043786e-03  9.5519583472606404e-02 2.2132001360607043e-02 4.1721797617813263e-04  9.5594837884480893e-02 2.2126675292940313e-02 -5.0637578781715991e-03  1.0651523356060173e-01 2.2100882423579129e-02 4.4685243308257612e-04  1.0658158024623991e-01 2.2108286211451368e-02 -5.0562445830679608e-03  1.1754890803736083e-01 2.2254025357187610e-02 4.7356997830682619e-04  1.1760372097084758e-01 2.2269499637536723e-02 -5.1263613430315921e-03  6.1476222433032829e-02 1.7260312056969502e-02 3.4617745334082167e-04  6.1613525293918184e-02 1.7212633573839502e-02 -5.2132474871185146e-03  5.0139006924052022e-02 1.7304263394819084e-02 3.2769194420694306e-04  5.0298428779328733e-02 1.7239186276815321e-02 -5.1785010359305548e-03  7.2756394164427460e-02 1.7095782518934968e-02 3.6700669326076218e-04  7.2869496396509983e-02 1.7064444507122894e-02 -5.1797705269598657e-03  8.3945565364577701e-02 1.6917434231462535e-02 3.9046158424855642e-04  8.4037970112399052e-02 1.6900281881225866e-02 -5.1213422120929648e-03  9.5054725068068863e-02 1.6791791474326599e-02 4.1509297932931723e-04  9.5131707758659492e-02 1.6786376563545875e-02 -5.0702570128058578e-03  1.0612318357475652e-01 1.6773985040994789e-02 4.4467260199999989e-04  1.0618971436124094e-01 1.6777968836631227e-02 -5.0509450401989122e-03  1.1723081932965793e-01 1.6948245622982732e-02 4.7105555200007879e-04  1.1728377495097922e-01 1.6956935309727104e-02 -5.1123473647284841e-03  6.0666730443368268e-02 1.1673851934575060e-02 3.4423360505511056e-04  6.0811269901641797e-02 1.1640696917176572e-02 -5.2760988437214390e-03  4.9163869861801997e-02 1.1665128232111022e-02 3.2549059178276835e-04  4.9331411688545337e-02 1.1620312500724449e-02 -5.2651762849491102e-03  7.2100203818718997e-02 1.1577393675465467e-02 3.6521191713567453e-04  7.2219158115517448e-02 1.1555315229975650e-02 -5.2209244243896650e-03  8.3410753123588005e-02 1.1460148414350550e-02 3.8873623555832918e-04  8.3507605085582304e-02 1.1447736812778787e-02 -5.1440246009742284e-03  9.4606532912646160e-02 1.1376233572280540e-02 4.1326698529729652e-04  9.4686695318509623e-02 1.1371860165047756e-02 -5.0778292534862301e-03  1.0573652552721598e-01 1.1376013939465635e-02 4.4292537260046848e-04  1.0580512031883178e-01 1.1377846263171239e-02 -5.0465097093300663e-03  1.1691160886066898e-01 1.1532133949401115e-02 4.6888075360027959e-04  1.1696493425486169e-01 1.1536546068226669e-02 -5.1020841370683166e-03  6.0124834454461734e-02 6.0194266400572577e-03 3.4138292147742945e-04  6.0274736554462971e-02 6.0019009605162743e-03 -5.3238266921497839e-03  4.8536002907581442e-02 5.9931295049331628e-03 3.2226516408925121e-04  4.8709243810679190e-02 5.9696259595364383e-03 -5.3299329688887443e-03  7.1646865462191109e-02 5.9858763065370928e-03 3.6277418294794499e-04  7.1770417910780676e-02 5.9740459401237322e-03 -5.2526649797311614e-03  8.3031582628116746e-02 5.9384265938636303e-03 3.8663321859173748e-04  8.3132171608393771e-02 5.9315805695451251e-03 -5.1619050791613464e-03  9.4281693972713868e-02 5.9069164929919336e-03 4.1141166847434509e-04  9.4364800094135393e-02 5.9042794274229617e-03 -5.0842648543693233e-03  1.0545180450967856e-01 5.9231809513607125e-03 4.4131714479883925e-04  1.0552259052702176e-01 5.9236243301263427e-03 -5.0443419568575940e-03  1.1667375537567870e-01 6.0248288174989777e-03 4.6707149619866679e-04  1.1672816681616698e-01 6.0263593898131976e-03 -5.0964211309521244e-03  5.9919006141542247e-02 3.3901052725542004e-04 3.3901052725541651e-04  6.0071009449552369e-02 3.3738241659715722e-04 -5.3427827369363391e-03  4.8302852834975971e-02 3.1947430129254401e-04 3.1947430129254661e-04  4.8478155620256744e-02 3.1739447886197056e-04 -5.3554137333507836e-03  7.1470507466875402e-02 3.6080934106053872e-04 3.6080934106054002e-04  7.1596040699719768e-02 3.5954655022265051e-04 -5.2654517309369247e-03  8.2880512900846595e-02 3.8500218269002078e-04 3.8500218269003705e-04  8.2982856837556865e-02 3.8403456950499720e-04 -5.1693209975068816e-03  9.4149184819185286e-02 4.1011066281892842e-04 4.1011066281895113e-04  9.4233804693719975e-02 4.0948416769550120e-04 -5.0871807921795999e-03  1.0533371930798242e-01 4.4017297841265695e-04 4.4017297841265793e-04  1.0540570500721121e-01 4.3955832797341828e-04 -5.0441429883326082e-03  1.1657240202402556e-01 4.6584312240240686e-04 4.6584312240244524e-04  1.1662756959674335e-01 4.6514404313904883e-04 -5.0950643944875692e-03  6.0071009449552341e-02 -5.3427827369363461e-03 3.3738241659715126e-04  6.0221574116944759e-02 -5.3286015157948934e-03 -5.3286015157948821e-03  4.8478155620256758e-02 -5.3554137333507897e-03 3.1739447886197680e-04  4.8651591938295519e-02 -5.3361571403480971e-03 -5.3361571403480875e-03  7.1596040699719962e-02 -5.2654517309369212e-03 3.5954655022265805e-04  7.1720617050713767e-02 -5.2561949775726414e-03 -5.2561949775726284e-03  8.2982856837556837e-02 -5.1693209975068833e-03 3.8403456950500137e-04  8.3084630338198934e-02 -5.1644183480596380e-03 -5.1644183480596285e-03  9.4233804693719961e-02 -5.0871807921796068e-03 4.0948416769550256e-04  9.4318148137088276e-02 -5.0857922490851496e-03 -5.0857922490851505e-03  1.0540570500721121e-01 -5.0441429883326420e-03 4.3955832797343459e-04  1.0547753899509704e-01 -5.0457491424741588e-03 -5.0457491424741267e-03  1.1662756959674335e-01 -5.0950643944875952e-03 4.6514404313908070e-04  1.1668286736606082e-01 -5.0978797538624599e-03 -5.0978797538624287e-03  6.0562038137135288e-02 -1.1001647860095304e-02 3.3717647029419162e-04  6.0707932580658854e-02 -1.0972035014862658e-02 -5.2847006902774600e-03  4.9051048755844942e-02 -1.1032345330294653e-02 3.1687900548562123e-04  4.9219016041795051e-02 -1.0992001446857623e-02 -5.2764485304159963e-03  7.2001331592867535e-02 -1.0860457418281504e-02 3.5949605530202186e-04  7.2122273805936513e-02 -1.0841050088515942e-02 -5.2273075884318766e-03  8.3315584691056058e-02 -1.0693605195641198e-02 3.8410360430280317e-04  8.3414677279634947e-02 -1.0683121587993338e-02 -5.1486078802620346e-03  9.4512743835897806e-02 -1.0557871676845394e-02 4.0971675558388964e-04  9.4595204704833777e-02 -1.0554705796670144e-02 -5.0807181046954621e-03  1.0564597317198794e-01 -1.0500691937136788e-02 4.3955660557123781e-04  1.0571648279074641e-01 -1.0503471600864482e-02 -5.0491951811076716e-03  1.1682044289981552e-01 -1.0607239397442748e-02 4.6499335250731855e-04  1.1687539347376261e-01 -1.0612596449411820e-02 -5.1049407889415133e-03  6.1325558091962863e-02 -1.6595091473543079e-02 3.3903762760039764e-04  6.1464584104198611e-02 -1.6550960640469500e-02 -5.2231515221172423e-03  4.9975256599209796e-02 -1.6680531694586300e-02 3.1896468861608508e-04  5.0135099612816085e-02 -1.6619962427631394e-02 -5.1916001347782270e-03  7.2613649687355314e-02 -1.6383338844211198e-02 3.6096215917297254e-04  7.2729259074920588e-02 -1.6354597270633629e-02 -5.1873015480714815e-03  8.3806757950544167e-02 -1.6153894219929847e-02 3.8519819923843294e-04  8.3901949708517012e-02 -1.6138507831368085e-02 -5.1270300134085272e-03  9.4917030852205000e-02 -1.5975044003825139e-02 4.1047988416342531e-04  9.4996832899583050e-02 -1.5970723145169737e-02 -5.0743546267684302e-03  1.0598953882834339e-01 -1.5904126605455735e-02 4.4004736826278783e-04  1.0605835222498239e-01 -1.5908633129416930e-02 -5.0546664518618094e-03  1.1709567776016384e-01 -1.6028883793238934e-02 4.6543160913146557e-04  1.1715050800152785e-01 -1.6037936866537240e-02 -5.1163384422414785e-03  6.2224349604104369e-02 -2.2054675848764877e-02 3.4377777988374246e-04  6.2356777177849335e-02 -2.1998027012266129e-02 -5.1652526740963607e-03  5.1130384974599458e-02 -2.2213362615457349e-02 3.2469178230417695e-04  5.1282099715158812e-02 -2.2135089898224353e-02 -5.1101678883054506e-03  7.3301344763199758e-02 -2.1785438154868907e-02 3.6457897454042623e-04  7.3412087686745772e-02 -2.1748846273451201e-02 -5.1502942155379648e-03  8.4338080515097363e-02 -2.1516867214309995e-02 3.8781309317196031e-04  8.4429992934012363e-02 -2.1497693027536086e-02 -5.1073108040735112e-03  9.5340540170283372e-02 -2.1315989365559531e-02 4.1232186762815346e-04  9.5418423966758689e-02 -2.1311408283284428e-02 -5.0687495621646378e-03  1.0633792589717667e-01 -2.1237167302556648e-02 4.4167295422427593e-04  1.0640615312152749e-01 -2.1244316663189211e-02 -5.0602594110947243e-03  1.1736952602577448e-01 -2.1337778293033932e-02 4.6646493080372130e-04  1.1742589291884704e-01 -2.1352629209328452e-02 -5.1310729047282797e-03  6.3013274396225019e-02 -2.7292495501980433e-02 3.5359069895169094e-04  6.3142764774986607e-02 -2.7227183031727158e-02 -5.1430513426105398e-03  5.2252297367474200e-02 -2.7478630416477860e-02 3.3847980474727488e-04  5.2399098672613408e-02 -2.7388002077546131e-02 -5.0752719116426521e-03  7.3857906443222793e-02 -2.7021034994315941e-02 3.7086407759123497e-04  7.3967379632478278e-02 -2.6979225983975556e-02 -5.1377366118658284e-03  8.4742415912789540e-02 -2.6760905684320723e-02 3.9095317170728119e-04  8.4834313147052837e-02 -2.6739728412424203e-02 -5.1018562394214862e-03  9.5726593548376010e-02 -2.6567439560433118e-02 -5.0685911916907916e-03  1.0664712503369872e-01 -2.6506043889021592e-02 -5.0653459276868715e-03  1.1761048568064553e-01 -2.6567269806994323e-02 -5.1447500826674554e-03  6.3311384271072371e-02 -3.2266215294274071e-02 3.6329089919031335e-04  6.3452703906567265e-02 -3.2199486482199863e-02 -5.2052809800069086e-03  5.2830184375453303e-02 -3.2343220350822724e-02 3.5157338072397724e-04  5.2987840817983772e-02 -3.2251051337778176e-02 -5.1603135388662603e-03  7.4007060561453758e-02 -3.2096335780706031e-02 3.7737522440129073e-04  7.4128103458407937e-02 -3.2053678973844923e-02 -5.1777124725207874e-03  8.4826038650755928e-02 -3.1917204053264481e-02 3.9483409657058702e-04  8.4929008334293205e-02 -3.1896167243844788e-02 -5.1211731335521603e-03  9.5803789897857705e-02 -3.1777639258412947e-02 -5.0682850837251376e-03  6.3788719640004835e-02 2.7701351407352047e-02 -1.0593083645264005e-02  6.4179794143994204e-02 3.2683764845298668e-02 -1.0708662603213362e-02  5.3752872380016900e-02 3.2602495376168876e-02 -1.0617546569690285e-02  5.3106125742710029e-02 2.7729525029968678e-02 -1.0455791168167920e-02  7.4552228426514669e-02 2.7577928853999054e-02 -1.0598840224573684e-02  7.4800725404130394e-02 3.2660698895945729e-02 -1.0670956963851990e-02  8.5369486424426419e-02 2.7450836851916422e-02 -1.0552914549849848e-02  8.5551966725981893e-02 3.2614877145719215e-02 -1.0586127964811946e-02  9.6227729407467044e-02 2.7380176288561438e-02 -1.0514272731281787e-02  9.6390152059671663e-02 3.2600407105656627e-02 -1.0512711444912570e-02  1.0712620757245958e-01 2.7406413837499609e-02 -1.0537943432149387e-02  1.0728938886164566e-01 3.2648073046811756e-02 -1.0504548461634466e-02  1.1806301577090832e-01 2.7552767575107669e-02 -1.0702490790029421e-02  1.1821256530756834e-01 3.2763414444822864e-02 -1.0675664347991930e-02  6.2965957738136000e-02 2.2486122348409722e-02 -1.0635010560029244e-02  5.1975669527500080e-02 2.2507120652596975e-02 -1.0519909283371400e-02  7.3945263881377260e-02 2.2350884485269520e-02 -1.0624288953751313e-02  8.4904402406333221e-02 2.2205175228066330e-02 -1.0566881229523390e-02  9.5852628043842078e-02 2.2115821948521984e-02 -1.0520307538853977e-02  1.0681165497424325e-01 2.2131953271084751e-02 -1.0533571068852001e-02  1.1780158624220505e-01 2.2315652132509942e-02 -1.0680732216245766e-02  6.2063532383072800e-02 1.7083083947107041e-02 -1.0749649815590729e-02  5.0824713487556149e-02 1.7058964706982330e-02 -1.0683936920035589e-02  7.3241982568318348e-02 1.6981211516616645e-02 -1.0696626605982557e-02  8.4346221656325590e-02 1.6856555277229734e-02 -1.0604903089607903e-02  9.5393384290642119e-02 1.6775089154035795e-02 -1.0530703970295322e-02  1.0641930541128351e-01 1.6791952479714243e-02 -1.0520522156995841e-02  1.1747515418074701e-01 1.6984457736110785e-02 -1.0650242471540195e-02  6.1282084589385263e-02 1.1552526370207676e-02 -1.0873934113872545e-02  4.9882004558766624e-02 1.1498838970819773e-02 -1.0857327024405028e-02  7.2607786226439180e-02 1.1498021507017481e-02 -1.0776746498326693e-02  8.3827467129166847e-02 1.1417036737172884e-02 -1.0647822001043569e-02  9.4956097017035682e-02 1.1363056819716964e-02 -1.0543318882418459e-02  1.0603899679165740e-01 1.1385636900211318e-02 -1.0509321336119275e-02  1.1715576656337683e-01 1.1551980382281992e-02 -1.0626412540911309e-02  6.0760333297801658e-02 5.9574679326059258e-03 -1.0966246970530493e-02  4.9276343709841360e-02 5.9087333666971347e-03 -1.0984095115880464e-02  7.2171079352140538e-02 5.9449892468556630e-03 -1.0837113947995162e-02  8.3461210254577506e-02 5.9158776049474020e-03 -1.0680716698325300e-02  9.4640895801205605e-02 5.8996544471207049e-03 -1.0553639275367595e-02  1.0576089556311569e-01 5.9271313329482779e-03 -1.0502631180480294e-02  1.1692025365718428e-01 6.0332448948781344e-03 -1.0611872766745221e-02  6.0562038137135364e-02 3.3717647029418620e-04 -1.1001647860095316e-02  4.9051048755844991e-02 3.1687900548561473e-04 -1.1032345330294648e-02  7.2001331592867521e-02 3.5949605530201471e-04 -1.0860457418281502e-02  8.3315584691056002e-02 3.8410360430279525e-04 -1.0693605195641170e-02  9.4512743835897722e-02 4.0971675558388221e-04 -1.0557871676845375e-02  1.0564597317198807e-01 4.3955660557120979e-04 -1.0500691937136760e-02  1.1682044289981557e-01 4.6499335250729427e-04 -1.0607239397442720e-02  6.0707932580658791e-02 -5.2847006902774609e-03 -1.0972035014862647e-02  4.9219016041795030e-02 -5.2764485304159980e-03 -1.0992001446857618e-02  7.2122273805936471e-02 -5.2273075884318714e-03 -1.0841050088515967e-02  8.3414677279635002e-02 -5.1486078802620329e-03 -1.0683121587993331e-02  9.4595204704833805e-02 -5.0807181046954855e-03 -1.0554705796670116e-02  1.0571648279074641e-01 -5.0491951811077037e-03 -1.0503471600864449e-02  1.1687539347376270e-01 -5.1049407889415515e-03 -1.0612596449411768e-02  6.1180451437926081e-02 -1.0884655351135357e-02 -1.0884655351135343e-02  4.9770568300992135e-02 -1.0872064339567007e-02 -1.0872064339567014e-02  7.2512924128365019e-02 -1.0784056913574404e-02 -1.0784056913574406e-02  8.3736484085041987e-02 -1.0652353442767585e-02 -1.0652353442767559e-02  9.4866387197714674e-02 -1.0545464914347612e-02 -1.0545464914347614e-02  1.0595150956076188e-01 -1.0510978393461443e-02 -1.0510978393461422e-02  1.1706701039849328e-01 -1.0627804648479346e-02 -1.0627804648479323e-02  6.1917337470694611e-02 -1.6422263828210455e-02 -1.0763353090137670e-02  5.0663361613106701e-02 -1.6441417375849150e-02 -1.0702877322443663e-02  7.3104635702854318e-02 -1.6271630819547238e-02 -1.0706126135444133e-02  8.4212769960832962e-02 -1.6094625722245147e-02 -1.0611070568713717e-02  9.5260714383978054e-02 -1.5958951300835317e-02 -1.0534164821732604e-02  1.0628925717914731e-01 -1.5921880353715410e-02 -1.0523003576555263e-02  1.1734268782249792e-01 -1.6064526570871540e-02 -1.0652210280650165e-02  6.2791072614081622e-02 -2.1833519562608206e-02 -1.0649609929212286e-02  5.1787137101897231e-02 -2.1904493411879972e-02 -1.0540016242438431e-02  7.3774318795628166e-02 -2.1644152594654634e-02 -1.0634835784042772e-02  8.4732523586877495e-02 -2.1443893237313782e-02 -1.0574331982750368e-02  9.5678246514930218e-02 -2.1299748942817560e-02 -1.0525290604747011e-02  1.0663709723777542e-01 -2.1266306140076855e-02 -1.0536427997108353e-02  1.1762414991874914e-01 -2.1396731474821830e-02 -1.0682972174527761e-02  6.3573269549086389e-02 -2.7038313213087497e-02 -1.0607083358933535e-02  5.2894822531181912e-02 -2.7121214582744333e-02 -1.0471637774576206e-02  7.4330144490768482e-02 -2.6860521452986019e-02 -1.0611387214266065e-02  8.5140688444076573e-02 -2.6681080184945395e-02 -1.0564324467355146e-02  9.5993388001973712e-02 -2.6559741828319126e-02 -1.0525250469475110e-02  1.0688957002882714e-01 -2.6541956092905758e-02 -1.0546116868654783e-02  1.1782747472598874e-01 -2.6637905277875476e-02 -1.0709991842225968e-02  6.3922217954108213e-02 -3.2006930552268213e-02 -1.0723351886317402e-02  5.3521375695176891e-02 -3.1979168847951857e-02 -1.0631664291744421e-02  7.4527571981014729e-02 -3.1933264585070349e-02 -1.0685829735844088e-02  8.5269214227440715e-02 -3.1838685020440814e-02 -1.0600803722482751e-02  9.6103089103016098e-02 -3.1775906267171632e-02 -1.0527050773001541e-02  6.4457384585238961e-02 2.7433619919611723e-02 -1.5966922138267628e-02  6.4905953697094163e-02 3.2406972140244600e-02 -1.6095468661959232e-02  5.4610828479944730e-02 3.2200196811950910e-02 -1.5959460227673829e-02  5.3905093152234372e-02 2.7340361604701945e-02 -1.5777409161001031e-02  7.5101293380295808e-02 2.7414252858194092e-02 -1.5989737498006765e-02  7.5402041281737359e-02 3.2492337818246411e-02 -1.6069295873723952e-02  8.5825293759738269e-02 2.7372908140995054e-02 -1.5949920795481506e-02  8.6054979770202406e-02 3.2537504644953474e-02 -1.5986738405440029e-02  9.6620708087135604e-02 2.7373316611963319e-02 -1.5921784688462105e-02  9.6828178637002577e-02 3.2601514109530244e-02 -1.5920366631037693e-02  1.0748184658789800e-01 2.7459833205910226e-02 -1.5973415410860409e-02  1.0769442943625165e-01 3.2723270262926457e-02 -1.5939332336792324e-02  1.1838366304064690e-01 2.7657019497268464e-02 -1.6189186262945167e-02  1.1859163850101487e-01 3.2910077523134011e-02 -1.6156423887823967e-02  6.3641510606969487e-02 2.2256078562381047e-02 -1.60503