<?xml version="1.0"?>
<VTKFile type="UnstructuredGrid"  version="0.1"  >
<UnstructuredGrid>
<Piece  NumberOfPoints="625" NumberOfCells="2522">
<Points>
<DataArray  type="Float64"  NumberOfComponents="3"  format="ascii">0 0 0.3333333333333333  0 0 0.4166666666666667  0.08333333333333333 0 0.4166666666666667  0.08333333333333333 0.08333333333333333 0.4166666666666667  0 0.08333333333333333 0.4166666666666667  0.08333333333333333 0.08333333333333333 0.5  0.08333333333333333 0 0.5  0 0 0.5  0 0.08333333333333333 0.5  0.1666666666666667 0 0.4166666666666667  0.1666666666666667 0.08333333333333333 0.4166666666666667  0.1666666666666667 0.08333333333333333 0.5  0.1666666666666667 0 0.5  0.25 0 0.4166666666666667  0.25 0.08333333333333333 0.4166666666666667  0.25 0.08333333333333333 0.5  0.25 0 0.5  0.3333333333333333 0 0.4166666666666667  0.3333333333333333 0.08333333333333333 0.4166666666666667  0.3333333333333333 0.08333333333333333 0.5  0.3333333333333333 0 0.5  0.4166666666666667 0 0.4166666666666667  0.4166666666666667 0.08333333333333333 0.4166666666666667  0.4166666666666667 0.08333333333333333 0.5  0.4166666666666667 0 0.5  0.5 0 0.4166666666666667  0.5 0.08333333333333333 0.4166666666666667  0.5 0.08333333333333333 0.5  0.5 0 0.5  0.08333333333333333 0.1666666666666667 0.4166666666666667  0.08333333333333333 0.1666666666666667 0.5  0 0.1666666666666667 0.4166666666666667  0 0.1666666666666667 0.5  0.1666666666666667 0.1666666666666667 0.4166666666666667  0.1666666666666667 0.1666666666666667 0.5  0.25 0.1666666666666667 0.4166666666666667  0.25 0.1666666666666667 0.5  0.3333333333333333 0.1666666666666667 0.4166666666666667  0.3333333333333333 0.1666666666666667 0.5  0.4166666666666667 0.1666666666666667 0.4166666666666667  0.4166666666666667 0.1666666666666667 0.5  0.5 0.1666666666666667 0.4166666666666667  0.5 0.1666666666666667 0.5  0.08333333333333333 0.25 0.4166666666666667  0.08333333333333333 0.25 0.5  0 0.25 0.4166666666666667  0 0.25 0.5  0.1666666666666667 0.25 0.4166666666666667  0.1666666666666667 0.25 0.5  0.25 0.25 0.4166666666666667  0.25 0.25 0.5  0.3333333333333333 0.25 0.4166666666666667  0.3333333333333333 0.25 0.5  0.4166666666666667 0.25 0.4166666666666667  0.4166666666666667 0.25 0.5  0.5 0.25 0.4166666666666667  0.5 0.25 0.5  0.08333333333333333 0.3333333333333333 0.4166666666666667  0.08333333333333333 0.3333333333333333 0.5  0 0.3333333333333333 0.4166666666666667  0 0.3333333333333333 0.5  0.1666666666666667 0.3333333333333333 0.4166666666666667  0.1666666666666667 0.3333333333333333 0.5  0.25 0.3333333333333333 0.5  0.3333333333333333 0.3333333333333333 0.5  0.4166666666666667 0.3333333333333333 0.5  0.5 0.3333333333333333 0.5  0.08333333333333333 0.4166666666666667 0.4166666666666667  0.08333333333333333 0.4166666666666667 0.5  0 0.4166666666666667 0.4166666666666667  0 0.4166666666666667 0.5  0.1666666666666667 0.4166666666666667 0.5  0.25 0.4166666666666667 0.5  0.08333333333333333 0.5 0.5  0 0.5 0.5  0 0.5 0.4166666666666667  0.1666666666666667 0.5 0.5  0.08333333333333333 0.5833333333333334 0.5  0 0.5833333333333334 0.5  0.08333333333333333 0.08333333333333333 0.5833333333333334  0.08333333333333333 0 0.5833333333333334  0 0 0.5833333333333334  0 0.08333333333333333 0.5833333333333334  0.1666666666666667 0.08333333333333333 0.5833333333333334  0.1666666666666667 0 0.5833333333333334  0.25 0.08333333333333333 0.5833333333333334  0.25 0 0.5833333333333334  0.3333333333333333 0.08333333333333333 0.5833333333333334  0.3333333333333333 0 0.5833333333333334  0.4166666666666667 0.08333333333333333 0.5833333333333334  0.4166666666666667 0 0.5833333333333334  0.5 0.08333333333333333 0.5833333333333334  0.5 0 0.5833333333333334  0.08333333333333333 0.1666666666666667 0.5833333333333334  0 0.1666666666666667 0.5833333333333334  0.1666666666666667 0.1666666666666667 0.5833333333333334  0.25 0.1666666666666667 0.5833333333333334  0.3333333333333333 0.1666666666666667 0.5833333333333334  0.4166666666666667 0.1666666666666667 0.5833333333333334  0.5 0.1666666666666667 0.5833333333333334  0.08333333333333333 0.25 0.5833333333333334  0 0.25 0.5833333333333334  0.1666666666666667 0.25 0.5833333333333334  0.25 0.25 0.5833333333333334  0.3333333333333333 0.25 0.5833333333333334  0.4166666666666667 0.25 0.5833333333333334  0.5 0.25 0.5833333333333334  0.08333333333333333 0.3333333333333333 0.5833333333333334  0 0.3333333333333333 0.5833333333333334  0.1666666666666667 0.3333333333333333 0.5833333333333334  0.25 0.3333333333333333 0.5833333333333334  0.3333333333333333 0.3333333333333333 0.5833333333333334  0.4166666666666667 0.3333333333333333 0.5833333333333334  0.5 0.3333333333333333 0.5833333333333334  0.08333333333333333 0.4166666666666667 0.5833333333333334  0 0.4166666666666667 0.5833333333333334  0.1666666666666667 0.4166666666666667 0.5833333333333334  0.25 0.4166666666666667 0.5833333333333334  0.3333333333333333 0.4166666666666667 0.5833333333333334  0.4166666666666667 0.4166666666666667 0.5833333333333334  0.5 0.4166666666666667 0.5833333333333334  0.08333333333333333 0.5 0.5833333333333334  0 0.5 0.5833333333333334  0.1666666666666667 0.5 0.5833333333333334  0.25 0.5 0.5833333333333334  0.3333333333333333 0.5 0.5833333333333334  0.08333333333333333 0.5833333333333334 0.5833333333333334  0 0.5833333333333334 0.5833333333333334  0.1666666666666667 0.5833333333333334 0.5833333333333334  0.25 0.5833333333333334 0.5833333333333334  0.08333333333333333 0.6666666666666666 0.5833333333333334  0 0.6666666666666666 0.5833333333333334  0.1666666666666667 0.6666666666666666 0.5833333333333334  0.08333333333333333 0.08333333333333333 0.6666666666666666  0.08333333333333333 0 0.6666666666666666  0 0 0.6666666666666666  0 0.08333333333333333 0.6666666666666666  0.1666666666666667 0.08333333333333333 0.6666666666666666  0.1666666666666667 0 0.6666666666666666  0.25 0.08333333333333333 0.6666666666666666  0.25 0 0.6666666666666666  0.3333333333333333 0.08333333333333333 0.6666666666666666  0.3333333333333333 0 0.6666666666666666  0.4166666666666667 0.08333333333333333 0.6666666666666666  0.4166666666666667 0 0.6666666666666666  0.5 0.08333333333333333 0.6666666666666666  0.5 0 0.6666666666666666  0.08333333333333333 0.1666666666666667 0.6666666666666666  0 0.1666666666666667 0.6666666666666666  0.1666666666666667 0.1666666666666667 0.6666666666666666  0.25 0.1666666666666667 0.6666666666666666  0.3333333333333333 0.1666666666666667 0.6666666666666666  0.4166666666666667 0.1666666666666667 0.6666666666666666  0.5 0.1666666666666667 0.6666666666666666  0.08333333333333333 0.25 0.6666666666666666  0 0.25 0.6666666666666666  0.1666666666666667 0.25 0.6666666666666666  0.25 0.25 0.6666666666666666  0.3333333333333333 0.25 0.6666666666666666  0.4166666666666667 0.25 0.6666666666666666  0.5 0.25 0.6666666666666666  0.08333333333333333 0.3333333333333333 0.6666666666666666  0 0.3333333333333333 0.6666666666666666  0.1666666666666667 0.3333333333333333 0.6666666666666666  0.25 0.3333333333333333 0.6666666666666666  0.3333333333333333 0.3333333333333333 0.6666666666666666  0.4166666666666667 0.3333333333333333 0.6666666666666666  0.5 0.3333333333333333 0.6666666666666666  0.08333333333333333 0.4166666666666667 0.6666666666666666  0 0.4166666666666667 0.6666666666666666  0.1666666666666667 0.4166666666666667 0.6666666666666666  0.25 0.4166666666666667 0.6666666666666666  0.3333333333333333 0.4166666666666667 0.6666666666666666  0.4166666666666667 0.4166666666666667 0.6666666666666666  0.5 0.4166666666666667 0.6666666666666666  0.08333333333333333 0.5 0.6666666666666666  0 0.5 0.6666666666666666  0.1666666666666667 0.5 0.6666666666666666  0.25 0.5 0.6666666666666666  0.3333333333333333 0.5 0.6666666666666666  0.4166666666666667 0.5 0.5833333333333334  0.4166666666666667 0.5 0.6666666666666666  0.5 0.5 0.5833333333333334  0.5 0.5 0.6666666666666666  0.08333333333333333 0.5833333333333334 0.6666666666666666  0 0.5833333333333334 0.6666666666666666  0.1666666666666667 0.5833333333333334 0.6666666666666666  0.25 0.5833333333333334 0.6666666666666666  0.3333333333333333 0.5833333333333334 0.5833333333333334  0.3333333333333333 0.5833333333333334 0.6666666666666666  0.4166666666666667 0.5833333333333334 0.5833333333333334  0.4166666666666667 0.5833333333333334 0.6666666666666666  0.5 0.5833333333333334 0.5833333333333334  0.5 0.5833333333333334 0.6666666666666666  0.08333333333333333 0.6666666666666666 0.6666666666666666  0 0.6666666666666666 0.6666666666666666  0.1666666666666667 0.6666666666666666 0.6666666666666666  0.25 0.6666666666666666 0.5833333333333334  0.25 0.6666666666666666 0.6666666666666666  0.3333333333333333 0.6666666666666666 0.5833333333333334  0.3333333333333333 0.6666666666666666 0.6666666666666666  0.4166666666666667 0.6666666666666666 0.5833333333333334  0.4166666666666667 0.6666666666666666 0.6666666666666666  0.5 0.6666666666666666 0.5833333333333334  0.5 0.6666666666666666 0.6666666666666666  0.08333333333333333 0.75 0.5833333333333334  0.08333333333333333 0.75 0.6666666666666666  0 0.75 0.5833333333333334  0 0.75 0.6666666666666666  0.1666666666666667 0.75 0.5833333333333334  0.1666666666666667 0.75 0.6666666666666666  0.25 0.75 0.5833333333333334  0.25 0.75 0.6666666666666666  0.3333333333333333 0.75 0.5833333333333334  0.3333333333333333 0.75 0.6666666666666666  0.4166666666666667 0.75 0.5833333333333334  0.4166666666666667 0.75 0.6666666666666666  0.5 0.75 0.5833333333333334  0.5 0.75 0.6666666666666666  0.08333333333333333 0.8333333333333334 0.5833333333333334  0.08333333333333333 0.8333333333333334 0.6666666666666666  0 0.8333333333333334 0.5833333333333334  0 0.8333333333333334 0.6666666666666666  0.1666666666666667 0.8333333333333334 0.5833333333333334  0.1666666666666667 0.8333333333333334 0.6666666666666666  0.25 0.8333333333333334 0.5833333333333334  0.25 0.8333333333333334 0.6666666666666666  0.3333333333333333 0.8333333333333334 0.5833333333333334  0.3333333333333333 0.833333333333
[...]
<PointData  Vectors="f_35"> 
<DataArray  type="Float64"  Name="f_35"  NumberOfComponents="3" format="ascii">0.0000000000000000e+00 0.0000000000000000e+00 0.0000000000000000e+00  0.0000000000000000e+00 0.0000000000000000e+00 0.0000000000000000e+00  9.1655470644300026e-03 2.0325246413551244e-02 1.9066345639178839e-03  3.4099533239661706e-03 1.3927358773756525e-02 1.8681657425023304e-03  0.0000000000000000e+00 0.0000000000000000e+00 0.0000000000000000e+00  3.3763277834366633e-03 1.3999750624033703e-02 2.6966237321337909e-04  9.1483285914730206e-03 2.0399016284727164e-02 2.4146709512325881e-04  0.0000000000000000e+00 0.0000000000000000e+00 0.0000000000000000e+00  0.0000000000000000e+00 0.0000000000000000e+00 0.0000000000000000e+00  1.6505933812504484e-02 2.6699352983497269e-02 3.3485985369086685e-03  1.2110304380877259e-02 2.1238388729479668e-02 3.2259439747777952e-03  1.2001922430972445e-02 2.1359514551380496e-02 2.4884082658891305e-04  1.6420910822929364e-02 2.6823018360079689e-02 2.6199709292301003e-04  2.4485426925741498e-02 3.0212232788179114e-02 4.4537006812943878e-03  2.1708834505561152e-02 2.5397240248936765e-02 4.3234175387463405e-03  2.1539436259461298e-02 2.5544333359924322e-02 2.7845150576342553e-04  2.4326690434190393e-02 3.0361349929793217e-02 2.7862939756173724e-04  3.3430386363035414e-02 3.1890035154926270e-02 5.1865300586425621e-03  3.1717265951978171e-02 2.7140066507714684e-02 5.0534467751385389e-03  3.1510987910820541e-02 2.7283937775516624e-02 2.9202846109438018e-04  3.3221805374784745e-02 3.2036204524879860e-02 2.9231710258207971e-04  4.3101246375849001e-02 3.2625648699873978e-02 5.6108554272093309e-03  4.2067060477093771e-02 2.7845334422760042e-02 5.4929565442328925e-03  4.1851847883132676e-02 2.7968313470217492e-02 3.0732036689481003e-04  4.2875150458920458e-02 3.2750632934403182e-02 3.0709377175716824e-04  5.3271961425755188e-02 3.2872446481236266e-02 5.8204859466424721e-03  5.2664199666080179e-02 2.7994932389248977e-02 5.7259724208124380e-03  5.2459976958329511e-02 2.8089921233428232e-02 3.2452477681895906e-04  5.3053315677984436e-02 3.2968964408543640e-02 3.2462829575299342e-04  2.5607082078332810e-03 9.2433445713818192e-03 1.8826856143726802e-03  2.5269336119517500e-03 9.3153056126233074e-03 2.6692206772686774e-04  0.0000000000000000e+00 0.0000000000000000e+00 0.0000000000000000e+00  0.0000000000000000e+00 0.0000000000000000e+00 0.0000000000000000e+00  1.0039545921351379e-02 1.5778725733189346e-02 3.2703430081680840e-03  9.9323437294873990e-03 1.5887104743265254e-02 2.4857314079585651e-04  1.9323626530415711e-02 1.9780694369082950e-02 4.3847280862066903e-03  1.9153077685713862e-02 1.9906170700113475e-02 2.8616506150691827e-04  2.9699223135446349e-02 2.1706428736002120e-02 5.1094090299035567e-03  2.9488313518999401e-02 2.1828661277423871e-02 2.9907147595936603e-04  4.0522632147704123e-02 2.2538460970189449e-02 5.5392390425192993e-03  4.0302412649302372e-02 2.2643794044106248e-02 3.1515180878924088e-04  5.1530284142208074e-02 2.2739828383139666e-02 5.7594140898061365e-03  5.1322231667756700e-02 2.2821800645711782e-02 3.3077128707298474e-04  2.2539968803575268e-03 6.3808587335178147e-03 1.9574063610638438e-03  2.2213725901344232e-03 6.4422983344774275e-03 2.7099834433604958e-04  0.0000000000000000e+00 0.0000000000000000e+00 0.0000000000000000e+00  0.0000000000000000e+00 0.0000000000000000e+00 0.0000000000000000e+00  8.7692368264923101e-03 1.1115938053165252e-02 3.3811955778270532e-03  8.6620697047207484e-03 1.1200422954800551e-02 2.4917681128340893e-04  1.7665061903385185e-02 1.4340230359371963e-02 4.5041994542302918e-03  1.7489623856579137e-02 1.4436660185840961e-02 2.8193885019285939e-04  2.8052351334299362e-02 1.6133613948984271e-02 5.2229946525117494e-03  2.7833529911188988e-02 1.6227230657956310e-02 2.9454773992568895e-04  3.9078027190279314e-02 1.6976756084135545e-02 5.6356029497770964e-03  3.8848720954335773e-02 1.7057792712334607e-02 3.1167033869082045e-04  5.0355404924100886e-02 1.7240714250481907e-02 5.8333402941874593e-03  5.0139006924052022e-02 1.7304263394819084e-02 3.2769194420694306e-04  2.0953432374972874e-03 4.0651034748309441e-03 2.0357427149944205e-03  2.0637509756021113e-03 4.1083724864005829e-03 2.7518211052048356e-04  0.0000000000000000e+00 0.0000000000000000e+00 0.0000000000000000e+00  0.0000000000000000e+00 0.0000000000000000e+00 0.0000000000000000e+00  8.1815606282275195e-03 7.1011522341211976e-03 3.4895704020621830e-03  8.0741711662075423e-03 7.1572304156496368e-03 2.4658268133585218e-04  1.6539460399813660e-02 9.4082385492454540e-03 2.7869300537436680e-04  2.6699849846608222e-02 1.0748899687831990e-02 2.9167573235075781e-04  3.7739118795651859e-02 1.1422074352296080e-02 3.0911481046120990e-04  4.9163869861801997e-02 1.1665128232111022e-02 3.2549059178276835e-04  2.0184092625339044e-03 2.0920029505374217e-03 2.0920029505374217e-03  1.9873601221182600e-03 2.1142754466338949e-03 2.7846064388766862e-04  0.0000000000000000e+00 0.0000000000000000e+00 0.0000000000000000e+00  0.0000000000000000e+00 0.0000000000000000e+00 0.0000000000000000e+00  7.7689627913885232e-03 3.5922074447936256e-03 2.4456307718742691e-04  1.6004656481254532e-02 4.7452537421324940e-03 2.7631143739670913e-04  1.9564641080621740e-03 2.7940707865297591e-04 2.7940707865297131e-04  0.0000000000000000e+00 0.0000000000000000e+00 0.0000000000000000e+00  0.0000000000000000e+00 0.0000000000000000e+00 0.0000000000000000e+00  7.6601666226553417e-03 2.4184529540317515e-04 2.4184529540318187e-04  1.9644164125484933e-03 -1.5348358103022025e-03 2.7735323669145559e-04  0.0000000000000000e+00 0.0000000000000000e+00 0.0000000000000000e+00  3.3873169689126606e-03 1.3953793028621637e-02 -1.3105935595683065e-03  9.1399054078493917e-03 2.0354778393587319e-02 -1.4053927182187435e-03  0.0000000000000000e+00 0.0000000000000000e+00 0.0000000000000000e+00  0.0000000000000000e+00 0.0000000000000000e+00 0.0000000000000000e+00  1.2060727222518119e-02 2.1253817404802915e-02 -2.7206554751986597e-03  1.6462385448761292e-02 2.6720641642889856e-02 -2.8137736581060444e-03  2.1653883105562797e-02 2.5411596454189136e-02 -3.7617219292435679e-03  2.4435731731597438e-02 3.0229282924813094e-02 -3.8899873409998491e-03  3.1661383019638986e-02 2.7149858046179670e-02 -4.4667394243421334e-03  3.3377639882175729e-02 3.1901692902613410e-02 -4.5975004175300557e-03  4.2012403252658828e-02 2.7850403053643693e-02 -4.8770159386081081e-03  4.3047166504952057e-02 3.2631733450675438e-02 -4.9937727574714359e-03  5.2610919924118281e-02 2.7996358394971436e-02 -5.0763121908060146e-03  5.3218000590725095e-02 3.2874372083444313e-02 -5.1694903760624361e-03  2.5368131078453270e-03 9.2673003510674833e-03 -1.3313942528123460e-03  0.0000000000000000e+00 0.0000000000000000e+00 0.0000000000000000e+00  9.9938725364569162e-03 1.5791527233638775e-02 -2.7658437849598923e-03  1.9272356010680367e-02 1.9789057664575258e-02 -3.8065653252315045e-03  2.9642410768021776e-02 2.1710671300442515e-02 -4.5084031960391079e-03  4.0465138552016694e-02 2.2539968372513465e-02 -4.9082166054378474e-03  5.1473811021550631e-02 2.2739140988247399e-02 -5.0980857227482012e-03  2.2300575227762070e-03 6.4019609421250429e-03 -1.3968775848276563e-03  0.0000000000000000e+00 0.0000000000000000e+00 0.0000000000000000e+00  8.7232394049014256e-03 1.1124316406229217e-02 -2.8748120079586975e-03  1.7611887999127506e-02 1.4345779937715639e-02 -3.9337254101894153e-03  2.7993914230391971e-02 1.6135807723862236e-02 -4.6309739523162589e-03  3.9019400748523864e-02 1.6976782507160455e-02 -5.0120012933739730e-03  5.0298428779328733e-02 1.7239186276815321e-02 -5.1785010359305548e-03  2.0720613669500858e-03 4.0803246452631994e-03 -1.4656280268228068e-03  0.0000000000000000e+00 0.0000000000000000e+00 0.0000000000000000e+00  8.1357525866157243e-03 7.1049777789890358e-03 -2.9873886768145837e-03  1.6665055732089745e-02 9.3469056504080650e-03 -4.0628449926384813e-03  2.6866528866331538e-02 1.0686831503716365e-02 -4.7568222999008420e-03  3.7917686488349756e-02 1.1366752933683427e-02 -5.1214617351915525e-03  4.9331411688545337e-02 1.1620312500724449e-02 -5.2651762849491102e-03  1.9954988667116101e-03 2.0993257337337413e-03 -1.5146559633454706e-03  0.0000000000000000e+00 0.0000000000000000e+00 0.0000000000000000e+00  7.8307839422049851e-03 3.5644694833866721e-03 -3.0670471439277784e-03  1.6132171355960727e-02 4.7133105676606937e-03 -4.1545927551542633e-03  2.6205923062549128e-02 5.4237211207413139e-03 -4.8480062913577315e-03  3.7241885985123513e-02 5.8092070631780499e-03 -5.2019865069140641e-03  4.8709243810679190e-02 5.9696259595364383e-03 -5.3299329688887443e-03  1.9644164125484811e-03 2.7735323669145169e-04 -1.5348358103021895e-03  0.0000000000000000e+00 0.0000000000000000e+00 0.0000000000000000e+00  7.7218435102692643e-03 2.3821145122634616e-04 -3.0987919677488290e-03  1.5950089331269693e-02 2.7020664371813592e-04 -4.1906168761327994e-03  2.5975280237997465e-02 2.8133961651358928e-04 -4.8837833391027615e-03  1.9721194993986054e-03 -1.5239631510474104e-03 -1.5239631510474067e-03  0.0000000000000000e+00 0.0000000000000000e+00 0.0000000000000000e+00  7.7829705932129737e-03 -3.0783635763333385e-03 -3.0783635763333285e-03  1.6077032798393655e-02 -4.1652420133430051e-03 -4.1652420133430164e-03  2.0211587604606462e-03 -3.4422927589053817e-03 -1.4849482141690317e-03  0.0000000000000000e+00 0.0000000000000000e+00 0.0000000000000000e+00  8.0349065041502108e-03 -6.5965927284510756e-03 -3.0100734554617588e-03  3.4481055034343258e-03 1.3786800499711867e-02 -2.9672118772562758e-03  9.1454805051167046e-03 2.0191716043149614e-02 -3.1178842986654153e-03  0.0000000000000000e+00 0.0000000000000000e+00 0.0000000000000000e+00  0.0000000000000000e+00 0.0000000000000000e+00 0.0000000000000000e+00  1.2310500504393885e-02 2.0919833699311448e-02 -5.8292356412521758e-03  1.6657108769499659e-02 2.6387697482277272e-02 -6.0088129824601693e-03  2.2079522024343233e-02 2.5003532505814219e-02 -7.9205513668778680e-03  2.4843298020287338e-02 2.9816675099288554e-02 -8.1528415972844919e-03  3.2184457815854640e-02 2.6748702673171722e-02 -9.2887440528411046e-03  3.3914936962214981e-02 3.1494261873212546e-02 -9.5221244517909066e-03  4.2549557983535283e-02 2.7506332446741184e-02 -1.0072774422680470e-02  4.3617032522691550e-02 3.2281609677264400e-02 -1.0277669546645843e-02  5.3106125742710029e-02 2.7729525029968678e-02 -1.0455791168167920e-02  5.3752872380016900e-02 3.2602495376168876e-02 -1.0617546569690285e-02  2.5939732008889156e-03 9.1000381903174679e-03 -3.0272526039662622e-03  0.0000000000000000e+00 0.0000000000000000e+00 0.0000000000000000e+00  1.0246223405486756e-02 1.5496174307800217e-02 -5.9503751340125076e-03  1.9709188708637835e-02 1.9438439084247364e-02 -8.0491930827719296e-03  3.0179253475902855e-02 2.1365971446845565e-02 -9.4058540072054827e-03  4.1013544167152763e-02 2.2242682641941108e-02 -1.0163399364540132e-02  5.1975669527500080e-02 2.2507120652596975e-02 -1.0519909283371400e-02  2.2831509782886791e-03 6.2634707449130663e-03 -3.1761786797884295e-03  0.0000000000000000e+00 0.0000000000000000e+00 0.0000000000000000e+00  8.9745681961117593e-03 1.0895259710786328e-02 -6.1897368315957267e-03  1.8060639498432039e-02 1.4078752429823094e-02 -8.3204866046906086e-03  2.8553518419033773e-02 1.5872901405280446e-02 -9.6632839337651398e-03  3.9594365154069625e-02 1.6748167975545718e-02 -1.0378551645847842e-02  5.0824713487556149e-02 1.7058964706982330e-02 -1.0683936920035589e-02  2.1229643714084276e-03 3.9848129471208270e-03 -3.3229709393508429e-03  0.0000000000000000e+00 0.0000000000000000e+00 0.0000000000000000e+00  8.3874764627735292e-03 6.9518505815950515e-03 -6.4209862115145429e-03  1.7123857756465941e-02 9.1701749665636378e-03 -8.5851169193668034e-03  2.7445867773056940e-02 1.0512446464306340e-02 -9.9199738690454765e-03  3.8517249078116683e-02 1.1214054738597158e-02 -1.0599791576637561e-02  4.9882004558766624e-02 1.1498838970819773e-02 -1.0857327024405028e-02  2.0452082799852231e-03 2.0492324959120209e-03 -3.4249843093516891e-03  0.0000000000000000e+00 0.0000000000000000e+00 0.0000000000000000e+00  8.0832253252762724e-03 3.4868889627530861e-03 -6.5804019481572546e-03  1.6597215913893799e-02 4.6248713378910971e-03 -8.7692605854716842e-03  2.6797535957480873e-02 5.3366974556722470e-03 -1.0101494151210417e-02  3.7857397641749543e-02 5.7329752032051449e-03 -1.0758901899542596e-02  4.9276343709841360e-02 5.9087333666971347e-03 -1.0984095115880464e-02  2.0135681504411780e-03 2.7179925748348069e-04 -3.4660455642978442e-03  0.0000000000000000e+00 0.0000000000000000e+00 0.0000000000000000e+00  7.9744339516377612e-03 2.3363477765856632e-04 -6.6413080351961692e-03  1.6417065871807225e-02 2.6690001843599555e-04 -8.8389163731781312e-03  2.6570842132328822e-02 2.7917532117865821e-04 -1.0170004641503583e-02  3.6997445308495934e-02 2.9983601739713716e-04 -5.2334843829256981e-03  3.7618311004541070e-02 2.9874981135195931e-04 -1.0819068172701996e-02  4.8478155620256744e-02 3.1739447886197056e-04 -5.3554137333507836e-03  4.9051048755844991e-02 3.1687900548561473e-04 -1.1032345330294648e-02  2.0211587604606336e-03 -1.4849482141690341e-03 -3.4422927589053804e-03  0.0000000000000000e+00 0.0000000000000000e+00 0.0000000000000000e+00  8.0349065041502108e-03 -3.0100734554617549e-03 -6.5965927284510912e-03  1.6541543987494890e-02 -4.0835098484753298e-03 -8.7843626353813244e-03  2.6145291543618370e-02 -4.8577804962733843e-03 -4.8577804962733851e-03  2.6736379675473227e-02 -4.7751880220036902e-03 -1.0114350149100121e-02  3.7180969197801651e-02 -5.2098259233361241e-03 -5.2098259233361198e-03  3.7796294463230407e-02 -5.1359223536361423e-03 -1.0769119878107374e-02  4.8651591938295519e-02 -5.3361571403480971e-03 -5.3361571403480875e-03  4.9219016041795030e-02 -5.2764485304159980e-03 -1.0992001446857618e-02  2.0708993172169712e-03 -3.3578402861334537e-03 -3.3578402861334650e-03  0.0000000000000000e+00 0.0000000000000000e+00 0.0000000000000000e+00  8.2858429758589144e-03 -6.4531122026179289e-03 -6.4531122026179281e-03  1.6541543987494890e-02 -8.7843626353813209e-03 -4.0835098484753333e-03  1.6999414821606159e-02 -8.6144767048980993e-03 -8.6144767048981045e-03  2.6736379675473220e-02 -1.0114350149100114e-02 -4.7751880220036945e-03  2.7314867450948084e-02 -9.9445463573437504e-03 -9.9445463573437590e-03  3.7796294463230344e-02 -1.0769119878107365e-02 -5.1359223536361319e-03  3.8395795110799852e-02 -1.0619093620971156e-02 -1.0619093620971165e-02  4.9219016041795051e-02 -1.0992001446857623e-02 -5.2764485304159963e-03  4.9770568300992135e-02 -1.0872064339567007e-02 -1.0872064339567014e-02  2.1430053043170832e-03 -5.6519711376095596e-03 -1.4248605358186128e-03  2.1950260423952818e-03 -5.5239332504278286e-03 -3.2253896336484054e-03  0.0000000000000000e+00 0.0000000000000000e+00 0.0000000000000000e+00  0.0000000000000000e+00 0.0000000000000000e+00 0.0000000000000000e+00  8.5730414176400128e-03 -1.0547335875075043e-02 -2.9077277102981473e-03  8.8232075645644555e-03 -1.0328246411784810e-02 -6.2361570418360910e-03  1.7441815196024044e-02 -1.3753218541329416e-02 -3.9625114200432113e-03  1.7889362606681145e-02 -1.3492989855570568e-02 -8.3616827388638803e-03  2.7798852634064699e-02 -1.5562285562237313e-02 -4.6542139358620371e-03  2.8357761084673604e-02 -1.5303853375144106e-02 -9.6961511517007978e-03  3.8837980448689545e-02 -1.6383416206461544e-02 -5.0293449989693567e-03  3.9413577256411113e-02 -1.6157580293164352e-02 -1.0403718714172800e-02  5.0135099612816085e-02 -1.6619962427631394e-02 -5.1916001347782270e-03  5.0663361613106701e-02 -1.6441417375849150e-02 -1.0702877322443663e-02  2.4354301375967991e-03 -8.4010231794565075e-03 -1.3675894410869840e-03  2.4922198326853885e-03 -8.2429640709114314e-03 -3.0896673956031509e-03  0.0000000000000000e+00 0.0000000000000000e+00 0.0000000000000000e+00  0.0000000000000000e+00 0.0000000000000000e+00 0.0000000000000000e+00  9.6116627846144307e-03 -1.5189167022400611e-02 -2.8066003842310244e-03  9.8641900112327197e-03 -1.4904776521739563e-02 -6.0111099605881409e-03  1.8948182578003351e-02 -1.9158799603576793e-02 -3.8406677164845322e-03  1.9384895992062015e-02 -1.8815149649247621e-02 -8.0988441899323138e-03  2.9380273571435404e-02 -2.1160469936928206e-02 -4.5334012529438614e-03  2.9917506629980991e-02 -2.0820139222896362e-02 -9.4433134048631014e-03  4.0245027239115910e-02 -2.1966987187039405e-02 -4.9248217968775676e-03  4.0795333414516938e-02 -2.1672331778987648e-02 -1.0190445958640349e-02  5.1282099715158812e-02 -2.2135089898224353e-02 -5.1101678883054506e-03  5.1787137101897231e-02 -2.1904493411879972e-02 -1.0540016242438431e-02  3.3358541118233814e-03 -1.2363326364888369e-02 -1.3377219364190496e-03  3.4023826184303848e-03 -1.2199784523756113e-02 -3.0114964689968490e-03  0.0000000000000000e+00 0.0000000000000000e+00 0.0000000000000000e+00  0.0000000000000000e+00 0.0000000000000000e+00 0.0000000000000000e+00  1.1797962095003185e-02 -2.0755444497861243e-02 -2.7449671713854458e-03  1.2048502111331169e-02 -2.0427404219477068e-02 -5.8720665242768004e-03  2.1379242747826935e-02 -2.4777438909421069e-02 -3.7733054232433096e-03  2.1800449408402679e-02 -2.4373526123397157e-02 -7.9490635665523321e-03  3.1424043063598771e-02 -2.6621591800214065e-02 -4.4700625024172141e-03  3.1942379022536806e-02 -2.6222444019203865e-02 -9.3110253697331526e-03  4.1797945322142691e-02 -2.7291033858433889e-02 -4.8753388991257963e-03  4.2333002893872256e-02 -2.6947720062067689e-02 -1.0090563478156360e-02  5.2399098672613408e-02 -2.7388002077546131e-02 -5.0752719116426521e-03  5.2894822531181912e-02 -2.7121214582744333e-02 -1.0471637774576206e-02  6.7632483695199150e-03 -1.8888390075995388e-02 -1.3721939873489848e-03  6.7853707448371934e-03 -1.8731611853831272e-02 -3.1032304693248912e-03  0.0000000000000000e+00 0.0000000000000000e+00 0.0000000000000000e+00  0.0000000000000000e+00 0.0000000000000000e+00 0.0000000000000000e+00  1.6370285872788042e-02 -2.6237455852425668e-02 -2.8599418737001382e-03  1.6571388162771136e-02 -2.5907615541784244e-02 -6.0773221350398478e-03  2.4333426965271378e-02 -2.9739020714463694e-02 -3.8873264703439855e-03  2.4733431723482920e-02 -2.9330319445391100e-02 -8.1688681621519856e-03  3.3266083322749829e-02 -3.1396216444041815e-02 -4.5890369625287827e-03  3.3793534306607260e-02 -3.0990860478694194e-02 -9.5371602717236811e-03  4.2863387531281237e-02 -3.2063545019650176e-02 -4.9801301018036299e-03  4.3427599848021727e-02 -3.1714310441105828e-02 -1.0289931483856969e-02  5.2987840817983772e-02 -3.2251051337778176e-02 -5.1603135388662603e-03  5.3521375695176891e-02 -3.1979168847951857e-02 -1.0631664291744421e-02  3.5980998318543211e-03 1.3492206995825031e-02 -4.8439218117348462e-03  9.2200755864308218e-03 1.9900239710195070e-02 -5.0283825633922630e-03  0.0000000000000000e+00 0.0000000000000000e+00 0.0000000000000000e+00  0.0000000000000000e+00 0.0000000000000000e+00 0.0000000000000000e+00  1.2852164658791803e-02 2.0356586186793188e-02 -9.2582589877922214e-03  1.7122983670939812e-02 2.5810008136656921e-02 -9.4744073530951493e-03  2.2910131950294666e-02 2.4340687945601635e-02 -1.2314803515684803e-02  2.5653689554492265e-02 2.9130486123429937e-02 -1.2590469949985049e-02  3.3124419695887579e-02 2.6122884111312597e-02 -1.4213339745983105e-02  3.4880819532865502e-02 3.0847514917308270e-02 -1.4485496710570500e-02  4.3456953397515527e-02 2.6988505682796232e-02 -1.5267411214151675e-02  4.4575263941745678e-02 3.1746587407547940e-02 -1.5501692735301683e-02  5.3905093152234372e-02 2.7340361604701945e-02 -1.5777409161001031e-02  5.4610828479944730e-02 3.2200196811950910e-02 -1.5959460227673829e-02  2.7339773661784377e-03 8.8179173069182423e-03 -4.9895068242467007e-03  0.0000000000000000e+00 0.0000000000000000e+00 0.0000000000000000e+00  1.0789889989794670e-02 1.5019866149703097e-02 -9.5208526280629192e-03  2.0562558063553726e-02 1.8890262617778542e-02 -1.2590291320465937e-02  3.1149796153101966e-02 2.0844038839039729e-02 -1.4456025083182429e-02  4.1946704691704667e-02 2.1806082661599190e-02 -