<?xml version="1.0"?>
<VTKFile type="UnstructuredGrid"  version="0.1"  >
<UnstructuredGrid>
<Piece  NumberOfPoints="50" NumberOfCells="72">
<Points>
<DataArray  type="Float64"  NumberOfComponents="3"  format="ascii">0 0 0  0.08333333333333333 0 0  0.08333333333333333 0.08333333333333333 0  0 0.08333333333333333 0  0.1666666666666667 0 0  0.1666666666666667 0.08333333333333333 0  0.25 0 0  0.25 0.08333333333333333 0  0.3333333333333333 0 0  0.3333333333333333 0.08333333333333333 0  0.4166666666666667 0 0  0.4166666666666667 0.08333333333333333 0  0.5 0 0  0.5 0.08333333333333333 0  0.5833333333333334 0 0  0.5833333333333334 0.08333333333333333 0  0.08333333333333333 0.1666666666666667 0  0 0.1666666666666667 0  0.1666666666666667 0.1666666666666667 0  0.25 0.1666666666666667 0  0.3333333333333333 0.1666666666666667 0  0.4166666666666667 0.1666666666666667 0  0.5 0.1666666666666667 0  0.5833333333333334 0.1666666666666667 0  0.08333333333333333 0.25 0  0.1666666666666667 0.25 0  0.25 0.25 0  0.3333333333333333 0.25 0  0.4166666666666667 0.25 0  0.5 0.25 0  0.5833333333333334 0.25 0  0.25 0.3333333333333333 0  0.3333333333333333 0.3333333333333333 0  0.4166666666666667 0.3333333333333333 0  0.5 0.3333333333333333 0  0.5833333333333334 0.3333333333333333 0  0.3333333333333333 0.4166666666666667 0  0.4166666666666667 0.4166666666666667 0  0.5 0.4166666666666667 0  0.5833333333333334 0.4166666666666667 0  0.6666666666666666 0.4166666666666667 0  0.4166666666666667 0.5 0  0.5 0.5 0  0.5833333333333334 0.5 0  0.6666666666666666 0.5 0  0.5 0.5833333333333334 0  0.5833333333333334 0.5833333333333334 0  0.6666666666666666 0.5833333333333334 0  0.6666666666666666 0.6666666666666666 0  0.75 0.6666666666666666 0  </DataArray>
</Points>
<Cells>
<DataArray  type="UInt32"  Name="connectivity"  format="ascii">0 1 2  0 3 2  1 4 5  1 2 5  4 6 7  4 5 7  6 8 9  6 7 9  8 10 11  8 9 11  10 12 13  10 11 13  12 14 15  12 13 15  3 2 16  3 17 16  2 5 18  2 16 18  5 7 19  5 18 19  7 9 20  7 19 20  9 11 21  9 20 21  11 13 22  11 21 22  13 15 23  13 22 23  17 16 24  16 18 25  16 24 25  18 19 26  18 25 26  19 20 27  19 26 27  20 21 28  20 27 28  21 22 29  21 28 29  22 23 30  22 29 30  25 26 31  26 27 32  26 31 32  27 28 33  27 32 33  28 29 34  28 33 34  29 30 35  29 34 35  31 32 36  32 33 37  32 36 37  33 34 38  33 37 38  34 35 39  34 38 39  35 39 40  36 37 41  37 38 42  37 41 42  38 39 43  38 42 43  39 40 44  39 43 44  41 42 45  42 43 46  42 45 46  43 44 47  43 46 47  46 47 48  47 48 49  </DataArray>
<DataArray  type="UInt32"  Name="offsets"  format="ascii">3 6 9 12 15 18 21 24 27 30 33 36 39 42 45 48 51 54 57 60 63 66 69 72 75 78 81 84 87 90 93 96 99 102 105 108 111 114 117 120 123 126 129 132 135 138 141 144 147 150 153 156 159 162 165 168 171 174 177 180 183 186 189 192 195 198 201 204 207 210 213 216 </DataArray>
<DataArray  type="UInt8"  Name="types"  format="ascii">5 5 5 5 5 5 5 5 5 5 5 5 5 5 5 5 5 5 5 5 5 5 5 5 5 5 5 5 5 5 5 5 5 5 5 5 5 5 5 5 5 5 5 5 5 5 5 5 5 5 5 5 5 5 5 5 5 5 5 5 5 5 5 5 5 5 5 5 5 5 5 5 </DataArray>
</Cells>
<PointData  Vectors="f_32"> 
<DataArray  type="Float64"  Name="f_32"  NumberOfComponents="3" format="ascii">0.0000000000000000e+00 0.0000000000000000e+00 0.0000000000000000e+00  1.0999610762006140e-02 2.5803417477956926e-02 0.0000000000000000e+00  3.3594113900144440e-03 1.7515592537743051e-02 0.0000000000000000e+00  0.0000000000000000e+00 0.0000000000000000e+00 0.0000000000000000e+00  1.7844976648664825e-02 3.5325633410845610e-02 0.0000000000000000e+00  1.1334675473391250e-02 2.8017491585182130e-02 0.0000000000000000e+00  2.3935766399096021e-02 4.1508485061776297e-02 0.0000000000000000e+00  1.9300862879523418e-02 3.4825492025590939e-02 0.0000000000000000e+00  3.0201744920329811e-02 4.5245504109492303e-02 0.0000000000000000e+00  2.6958071378991720e-02 3.8483899125452609e-02 0.0000000000000000e+00  3.6810723128637264e-02 4.7502753039080754e-02 0.0000000000000000e+00  3.4576983149699120e-02 4.0555180584910630e-02 0.0000000000000000e+00  4.3824568134405682e-02 4.8826984660739030e-02 0.0000000000000000e+00  4.2305601938328809e-02 4.1620268122653799e-02 0.0000000000000000e+00  5.1235331475247982e-02 4.9571512000296351e-02 0.0000000000000000e+00  5.0195020369784904e-02 4.2102860310630708e-02 0.0000000000000000e+00  2.2197894262651237e-03 1.1785605934838786e-02 0.0000000000000000e+00  0.0000000000000000e+00 0.0000000000000000e+00 0.0000000000000000e+00  8.4752311874132374e-03 2.1016394438216981e-02 0.0000000000000000e+00  1.5879822188963257e-02 2.7273219344416212e-02 0.0000000000000000e+00  2.3877590412834812e-02 3.0883634225369026e-02 0.0000000000000000e+00  3.2054173777920289e-02 3.2901378575478618e-02 0.0000000000000000e+00  4.0314817565072360e-02 3.3869814187073202e-02 0.0000000000000000e+00  4.8638890593270687e-02 3.4249309586112907e-02 0.0000000000000000e+00  1.8313572199030318e-03 8.3154648048508611e-03 0.0000000000000000e+00  6.8308017520412314e-03 1.5009280569766829e-02 0.0000000000000000e+00  1.3631052883671214e-02 1.9950756801324535e-02 0.0000000000000000e+00  2.1521426602137735e-02 2.3084235810697833e-02 0.0000000000000000e+00  2.9865337851908657e-02 2.4871138096450352e-02 0.0000000000000000e+00  3.8418776102438199e-02 2.5741236177233742e-02 0.0000000000000000e+00  4.7049279953897676e-02 2.6072481249390315e-02 0.0000000000000000e+00  1.2387201908942906e-02 1.3123169969784297e-02 0.0000000000000000e+00  1.9961607736814466e-02 1.5384058645437069e-02 0.0000000000000000e+00  2.8252747852069750e-02 1.6720067086231919e-02 0.0000000000000000e+00  3.6914246152641834e-02 1.7398047222549257e-02 0.0000000000000000e+00  4.5718770207938381e-02 1.7665620870035457e-02 0.0000000000000000e+00  1.9057296254216431e-02 7.8549720731900113e-03 0.0000000000000000e+00  2.7272945671594554e-02 8.5812285278242702e-03 0.0000000000000000e+00  3.5956816310578350e-02 8.9648282829127464e-03 0.0000000000000000e+00  4.4840513583167999e-02 9.1293109418136668e-03 0.0000000000000000e+00  5.3767750481850285e-02 9.1735868656537319e-03 0.0000000000000000e+00  2.6916088097761286e-02 4.7206454115459375e-04 0.0000000000000000e+00  3.5599531222240598e-02 5.0256471357086445e-04 0.0000000000000000e+00  4.4506069934348191e-02 5.3691690587733074e-04 0.0000000000000000e+00  5.3464198764811940e-02 5.7538838087291711e-04 0.0000000000000000e+00  3.5857552700831991e-02 -7.9610116475569512e-03 0.0000000000000000e+00  4.4744770945040147e-02 -8.0570496801203786e-03 0.0000000000000000e+00  5.3674941803459775e-02 -8.0241425464968649e-03 0.0000000000000000e+00  5.4366932614640172e-02 -1.6565181845542992e-02 0.0000000000000000e+00  6.3175361504073393e-02 -1.6440909257024607e-02 0.0000000000000000e+00  </DataArray> 
</PointData> 
</Piece>
</UnstructuredGrid>
</VTKFile>