<?xml version="1.0"?>
<VTKFile type="UnstructuredGrid"  version="0.1"  >
<UnstructuredGrid>
<Piece  NumberOfPoints="2197" NumberOfCells="10368">
<Points>
<DataArray  type="Float64"  NumberOfComponents="3"  format="ascii">0 0 0  0.08333333333333333 0 0  0.1666666666666667 0 0  0.25 0 0  0.3333333333333333 0 0  0.4166666666666667 0 0  0.5 0 0  0.5833333333333334 0 0  0.6666666666666666 0 0  0.75 0 0  0.8333333333333334 0 0  0.9166666666666666 0 0  1 0 0  0 0.08333333333333333 0  0.08333333333333333 0.08333333333333333 0  0.1666666666666667 0.08333333333333333 0  0.25 0.08333333333333333 0  0.3333333333333333 0.08333333333333333 0  0.4166666666666667 0.08333333333333333 0  0.5 0.08333333333333333 0  0.5833333333333334 0.08333333333333333 0  0.6666666666666666 0.08333333333333333 0  0.75 0.08333333333333333 0  0.8333333333333334 0.08333333333333333 0  0.9166666666666666 0.08333333333333333 0  1 0.08333333333333333 0  0 0.1666666666666667 0  0.08333333333333333 0.1666666666666667 0  0.1666666666666667 0.1666666666666667 0  0.25 0.1666666666666667 0  0.3333333333333333 0.1666666666666667 0  0.4166666666666667 0.1666666666666667 0  0.5 0.1666666666666667 0  0.5833333333333334 0.1666666666666667 0  0.6666666666666666 0.1666666666666667 0  0.75 0.1666666666666667 0  0.8333333333333334 0.1666666666666667 0  0.9166666666666666 0.1666666666666667 0  1 0.1666666666666667 0  0 0.25 0  0.08333333333333333 0.25 0  0.1666666666666667 0.25 0  0.25 0.25 0  0.3333333333333333 0.25 0  0.4166666666666667 0.25 0  0.5 0.25 0  0.5833333333333334 0.25 0  0.6666666666666666 0.25 0  0.75 0.25 0  0.8333333333333334 0.25 0  0.9166666666666666 0.25 0  1 0.25 0  0 0.3333333333333333 0  0.08333333333333333 0.3333333333333333 0  0.1666666666666667 0.3333333333333333 0  0.25 0.3333333333333333 0  0.3333333333333333 0.3333333333333333 0  0.4166666666666667 0.3333333333333333 0  0.5 0.3333333333333333 0  0.5833333333333334 0.3333333333333333 0  0.6666666666666666 0.3333333333333333 0  0.75 0.3333333333333333 0  0.8333333333333334 0.3333333333333333 0  0.9166666666666666 0.3333333333333333 0  1 0.3333333333333333 0  0 0.4166666666666667 0  0.08333333333333333 0.4166666666666667 0  0.1666666666666667 0.4166666666666667 0  0.25 0.4166666666666667 0  0.3333333333333333 0.4166666666666667 0  0.4166666666666667 0.4166666666666667 0  0.5 0.4166666666666667 0  0.5833333333333334 0.4166666666666667 0  0.6666666666666666 0.4166666666666667 0  0.75 0.4166666666666667 0  0.8333333333333334 0.4166666666666667 0  0.9166666666666666 0.4166666666666667 0  1 0.4166666666666667 0  0 0.5 0  0.08333333333333333 0.5 0  0.1666666666666667 0.5 0  0.25 0.5 0  0.3333333333333333 0.5 0  0.4166666666666667 0.5 0  0.5 0.5 0  0.5833333333333334 0.5 0  0.6666666666666666 0.5 0  0.75 0.5 0  0.8333333333333334 0.5 0  0.9166666666666666 0.5 0  1 0.5 0  0 0.5833333333333334 0  0.08333333333333333 0.5833333333333334 0  0.1666666666666667 0.5833333333333334 0  0.25 0.5833333333333334 0  0.3333333333333333 0.5833333333333334 0  0.4166666666666667 0.5833333333333334 0  0.5 0.5833333333333334 0  0.5833333333333334 0.5833333333333334 0  0.6666666666666666 0.5833333333333334 0  0.75 0.5833333333333334 0  0.8333333333333334 0.5833333333333334 0  0.9166666666666666 0.5833333333333334 0  1 0.5833333333333334 0  0 0.6666666666666666 0  0.08333333333333333 0.6666666666666666 0  0.1666666666666667 0.6666666666666666 0  0.25 0.6666666666666666 0  0.3333333333333333 0.6666666666666666 0  0.4166666666666667 0.6666666666666666 0  0.5 0.6666666666666666 0  0.5833333333333334 0.6666666666666666 0  0.6666666666666666 0.6666666666666666 0  0.75 0.6666666666666666 0  0.8333333333333334 0.6666666666666666 0  0.9166666666666666 0.6666666666666666 0  1 0.6666666666666666 0  0 0.75 0  0.08333333333333333 0.75 0  0.1666666666666667 0.75 0  0.25 0.75 0  0.3333333333333333 0.75 0  0.4166666666666667 0.75 0  0.5 0.75 0  0.5833333333333334 0.75 0  0.6666666666666666 0.75 0  0.75 0.75 0  0.8333333333333334 0.75 0  0.9166666666666666 0.75 0  1 0.75 0  0 0.8333333333333334 0  0.08333333333333333 0.8333333333333334 0  0.1666666666666667 0.8333333333333334 0  0.25 0.8333333333333334 0  0.3333333333333333 0.8333333333333334 0  0.4166666666666667 0.8333333333333334 0  0.5 0.8333333333333334 0  0.5833333333333334 0.8333333333333334 0  0.6666666666666666 0.8333333333333334 0  0.75 0.8333333333333334 0  0.8333333333333334 0.8333333333333334 0  0.9166666666666666 0.8333333333333334 0  1 0.8333333333333334 0  0 0.9166666666666666 0  0.08333333333333333 0.9166666666666666 0  0.1666666666666667 0.9166666666666666 0  0.25 0.9166666666666666 0  0.3333333333333333 0.9166666666666666 0  0.4166666666666667 0.9166666666666666 0  0.5 0.9166666666666666 0  0.5833333333333334 0.9166666666666666 0  0.6666666666666666 0.9166666666666666 0  0.75 0.9166666666666666 0  0.8333333333333334 0.9166666666666666 0  0.9166666666666666 0.9166666666666666 0  1 0.9166666666666666 0  0 1 0  0.08333333333333333 1 0  0.1666666666666667 1 0  0.25 1 0  0.3333333333333333 1 0  0.4166666666666667 1 0  0.5 1 0  0.5833333333333334 1 0  0.6666666666666666 1 0  0.75 1 0  0.8333333333333334 1 0  0.9166666666666666 1 0  1 1 0  0 0 0.08333333333333333  0.08333333333333333 0 0.08333333333333333  0.1666666666666667 0 0.08333333333333333  0.25 0 0.08333333333333333  0.3333333333333333 0 0.08333333333333333  0.4166666666666667 0 0.08333333333333333  0.5 0 0.08333333333333333  0.5833333333333334 0 0.08333333333333333  0.6666666666666666 0 0.08333333333333333  0.75 0 0.08333333333333333  0.8333333333333334 0 0.08333333333333333  0.9166666666666666 0 0.08333333333333333  1 0 0.08333333333333333  0 0.08333333333333333 0.08333333333333333  0.08333333333333333 0.08333333333333333 0.08333333333333333  0.1666666666666667 0.08333333333333333 0.08333333333333333  0.25 0.08333333333333333 0.08333333333333333  0.3333333333333333 0.08333333333333333 0.08333333333333333  0.4166666666666667 0.08333333333333333 0.08333333333333333  0.5 0.08333333333333333 0.08333333333333333  0.5833333333333334 0.08333333333333333 0.08333333333333333  0.6666666666666666 0.08333333333333333 0.08333333333333333  0.75 0.08333333333333333 0.08333333333333333  0.8333333333333334 0.08333333333333333 0.08333333333333333  0.9166666666666666 0.08333333333333333 0.08333333333333333  1 0.08333333333333333 0.08333333333333333  0 0.1666666666666667 0.08333333333333333  0.08333333333333333 0.1666666666666667 0.08333333333333333  0.1666666666666667 0.1666666666666667 0.08333333333333333  0.25 0.1666666666666667 0.08333333333333333  0.3333333333333333 0.1666666666666667 0.08333333333333333  0.4166666666666667 0.1666666666666667 0.08333333333333333  0.5 0.1666666666666667 0.08333333333333333  0.5833333333333334 0.1666666666666667 0.08333333333333333  0.6666666666666666 0.1666666666666667 0.08333333333333333  0.75 0.1666666666666667 0.08333333333333333  0.8333333333333334 0.1666666666666667 0.08333333333333333  0.9166666666666666 0.1666666666666667 0.08333333333333333  1 0.1666666666666667 0.08333333333333333  0 0.25 0.08333333333333333  0.08333333333333333 0.25 0.08333333333333333  0.1666666666666667 0.25 0.08333333333333333  0.25 0.25 0.08333333333333333  0.3333333333333333 0.25 0.08333333333333333  0.4166666666666667 0.25 0.08333333333333333  0.5 0.25 0.08333333333333333  0.5833333333333334 0.25 0.08333333333333333  0.6666666666666666 0.25 0.08333333333333333  0.75 0.25 0.08333333333333333  0.8333333333333334 0.25 0.08333333333333333  0.9166666666666666 0.25 0.08333333333333333  1 0.25 0.08333333333333333  0 0.3333333333333333 0.08333333333333333  0.08333333333333333 0.3333333333333333 0.08333333333333333  0.1666666666666667 0.3333333333333333 0.08333333333333333  0.25 0.3333333333333333 0.08333333333333333  0.3333333333333333 0.3333333333333333 0.08333333333333333  0.4166666666666667 0.3333333333333333 0.08333333333333333  0.5 0.3333333333333333 0.08333333333333333  0.5833333333333334 0.3333333333333333 0.08333333333333333  0.6666666666666666 0.3333333333333333 0.08333333333333333  0.75 0.3333333333333333 0.08333333333333333  0.8333333333333334 0.3333333333333333 0.08333333333333333  0.9166666666666666 0.3333333333333333 0.08333333333333333  1 0.3333333333333333 0.08333333333333333  0 0.4166666666666667 0.08333333333333333  0.08333333333333333 0.4166666666666667 0.08333333333333333  0.1666666666666667 0.4166666666666667 0.08333333333333333  0.25 0.4166666666666667 0.08333333333333333  0.3333333333333333 0.4166666666666667 0.08333333333333333  0.4166666666666667 0.4166666666666667 0.08333333333333333  0.5 0.4166666666666667 0.08333333333333333  0.5833333333333334 0.4166666666666667 0.08333333333333333  0.6666666666666666 0.4166666666666667 0.08333333333333333  0.75 0.4166666666666667 0.08333333333333333  0.8333333333333334 0.4166666666666667 0.08333333333333333  0.9166666666666666 0.4166666666666667 0.08333333333333333  1 0.4166666666666667 0.08333333333333333  0 0.5 0.08333333333333333  0.08333333333333333 0.5 0.08333333333333333  0.1666666666666667 0.5 0.08333333333333333  0.25 0.5 0.08333333333333333  0.3333333333333333 0.5 0.08333333333333333  0.4166666666666667 0.5 0.08333333333333333  0.5 0.5 0.08333333333333333  0.5833333333333334 0.5 0.08333333333333333  0.6666666666666666 0.5 0.08333333333333333  0.75 0.5 0.08333333333333333  0.8333333333333334 0.5 0.08333333333333333  0.9166666666666666 0.5 0.08333333333333333  1 0.5 0.08333333333333333  0 0.5833333333333334 0.08333333333333333  0.08333333333333333 0.5833333333333334 0.08333333333333333  0.1666666666666667 0.5833333333333334 0.08333333333333333  0.25 0.5833333333333334 0.08333333333333333  0.3333333333333333 0.5833333333333334 0.08333333333333333  0.4166666666666667 0.5833333333333334 0.08333333333333333  0.5 0.5833333333333334 0.08333333333333333  0.5833333333333334 0.5833333333333334 0.08333333333333333  0.6666666666666666 0.5833333333333334 0.08333333333333333  0.75 0.5833333333333334 0.08333333333333333  0.8333333333333334 0.5833333333333334 0.083
[...]
<PointData  Vectors="f_32"> 
<DataArray  type="Float64"  Name="f_32"  NumberOfComponents="3" format="ascii">0.0000000000000000e+00 0.0000000000000000e+00 0.0000000000000000e+00  1.4369595460093721e-02 1.8189915908441386e-02 1.8189915908441382e-02  2.4450643198039766e-02 2.4220405843198012e-02 2.4220405843197991e-02  3.3673631948308511e-02 2.7917053469901525e-02 2.7917053469901545e-02  4.3201719104360978e-02 3.0174730466902912e-02 3.0174730466902909e-02  5.3277751566113307e-02 3.1537858113785802e-02 3.1537858113785781e-02  6.3928320726791499e-02 3.2343455160876243e-02 3.2343455160876264e-02  7.5091043658187057e-02 3.2807260231063611e-02 3.2807260231063652e-02  8.6675056064321784e-02 3.3071286863906244e-02 3.3071286863906195e-02  9.8589718732379886e-02 3.3229750300248787e-02 3.3229750300248780e-02  1.1075083122082545e-01 3.3347451543474668e-02 3.3347451543474710e-02  1.2309590674687118e-01 3.3466853267477857e-02 3.3466853267477878e-02  1.3552747545733518e-01 3.3597699543914658e-02 3.3597699543914651e-02  0.0000000000000000e+00 0.0000000000000000e+00 0.0000000000000000e+00  1.0205253391125428e-02 1.2590412076371075e-02 1.9353216209306790e-02  2.0977287759935025e-02 1.9500061304961767e-02 2.4713929321792748e-02  3.1222792865064127e-02 2.3410202075480557e-02 2.8248477578607625e-02  4.1534112879079571e-02 2.5586547911197854e-02 3.0385093330053965e-02  5.2168250244367324e-02 2.6772299711437936e-02 3.1668091501233141e-02  6.3203081056975585e-02 2.7391593257989986e-02 3.2422281021829549e-02  7.4620190243263787e-02 2.7690370200755349e-02 3.2852388121188847e-02  8.6363843728709366e-02 2.7819674148257850e-02 3.3094318477529486e-02  9.8370134933954495e-02 2.7873181560111388e-02 3.3238253619547416e-02  1.1057864953631363e-01 2.7912426731671856e-02 3.3347020032376433e-02  1.2293977114503082e-01 2.7975557641684058e-02 3.3463779661598227e-02  1.3537674559487764e-01 2.8097912806270928e-02 3.3595851229975542e-02  0.0000000000000000e+00 0.0000000000000000e+00 0.0000000000000000e+00  9.1889327582642660e-03 8.7936150860932118e-03 2.0343754146484868e-02  1.8948871513728559e-02 1.4879155296708883e-02 2.5896477543278243e-02  2.9179830497865024e-02 1.8630601736650237e-02 2.9211937016151664e-02  3.9848716583559977e-02 2.0709640378257427e-02 3.1068094494601083e-02  5.0884827829576616e-02 2.1775638200517311e-02 3.2125043048342905e-02  6.2264775891287573e-02 2.2269779103262746e-02 3.2716323296211089e-02  7.3948092023278247e-02 2.2455390809130230e-02 3.3031880793790901e-02  8.5882252918728169e-02 2.2490360887837832e-02 3.3194734677507838e-02  9.8015236809563935e-02 2.2468157791941491e-02 3.3284038996103389e-02  1.1030112366405878e-01 2.2447113061520571e-02 3.3354879929395315e-02  1.2270134778785988e-01 2.2466354861897127e-02 3.3442856119653239e-02  1.3515798766793177e-01 2.2586058677023436e-02 3.3554067773364796e-02  0.0000000000000000e+00 0.0000000000000000e+00 0.0000000000000000e+00  8.8836325782045925e-03 6.1330909545402835e-03 2.1036705092620653e-02  1.7887560058161951e-02 1.0720825673051965e-02 2.6969444163909197e-02  2.7758188806728340e-02 1.3820886906785644e-02 3.0234623385297976e-02  3.8453201359487155e-02 1.5617265657594567e-02 3.1883834599603408e-02  4.9693408962694231e-02 1.6536608677529107e-02 3.2716440970415803e-02  6.1320559806479769e-02 1.6936720693767154e-02 3.3117736379421704e-02  7.3229366568333801e-02 1.7056855335420468e-02 3.3287486879350445e-02  8.5342757013762913e-02 1.7044431839573704e-02 3.3343748407184050e-02  9.7604228619014965e-02 1.6986182865081880e-02 3.3355925985535440e-02  1.0997280871355045e-01 1.6934813057573949e-02 3.3369280745191535e-02  1.2241642362863833e-01 1.6930402397691054e-02 3.3409168593979799e-02  1.3489753207887159e-01 1.7039409293255287e-02 3.3481883946890729e-02  0.0000000000000000e+00 0.0000000000000000e+00 0.0000000000000000e+00  8.7653539344910037e-03 3.9660535786400905e-03 2.1507710378875295e-02  1.7342757347043380e-02 6.9860871330096955e-03 2.7744525669070354e-02  2.6875939577597280e-02 9.1443889569327776e-03 3.1048317372215129e-02  3.7466224785209938e-02 1.0452742494706905e-02 3.2584075687462549e-02  4.8771020158651576e-02 1.1136155751396256e-02 3.3253835172431565e-02  6.0542073842644477e-02 1.1429545648705679e-02 3.3498016250501694e-02  7.2609340274952180e-02 1.1507705172477583e-02 3.3537677282160359e-02  8.4861342538618115e-02 1.1483703261943546e-02 3.3493754304538131e-02  9.7227848999700675e-02 1.1425446715517986e-02 3.3430454071686204e-02  1.0966591878152659e-01 1.1373843556010768e-02 3.3385162926742928e-02  1.2214743739407219e-01 1.1363980954367763e-02 3.3374745633867303e-02  1.3465205789455822e-01 1.1448277692044696e-02 3.3407197764613497e-02  0.0000000000000000e+00 0.0000000000000000e+00 0.0000000000000000e+00  8.7184343112168671e-03 2.0347364014873656e-03 2.1785785722719199e-02  1.7078640772537922e-02 3.5219639864252747e-03 2.8203199872668023e-02  2.6399159836407508e-02 4.6147086082414532e-03 3.1557235060935017e-02  3.6886608891003266e-02 5.2948911078354024e-03 3.3042279861892031e-02  4.8196416052719293e-02 5.6562868372838819e-03 3.3617468233822403e-02  6.0036115326548498e-02 5.8119762175390223e-03 3.3762042883673675e-02  7.2193627813287281e-02 5.8519326581784993e-03 3.3714938945179761e-02  8.4530808635167529e-02 5.8366324451308979e-03 3.3601765368242949e-02  9.6964520048389818e-02 5.8033105745818603e-03 3.3484835182911017e-02  1.0944789515848206e-01 5.7739165852972825e-03 3.3396775410535574e-02  1.2195524903343935e-01 5.7706660909485003e-03 3.3349561422220564e-02  1.3447645608754319e-01 5.8166134083451684e-03 3.3352290568811262e-02  0.0000000000000000e+00 0.0000000000000000e+00 0.0000000000000000e+00  8.6992545096344909e-03 2.1222987809761687e-04 2.1888363302959891e-02  1.6989976317429826e-02 1.8900918700068151e-04 2.8360839624925731e-02  2.6240104644267074e-02 1.7108069420726683e-04 3.1733546884349324e-02  3.6688962129732675e-02 1.5684737695979969e-04 3.3202939952709926e-02  4.7996093514686228e-02 1.4773149434043137e-04 3.3745939953325241e-02  5.9856452111639702e-02 1.4348651028347505e-04 3.3855762408472344e-02  7.2043668243618783e-02 1.4270404534312027e-04 3.3777988556916036e-02  8.4409765964488209e-02 1.4436155368005463e-04 3.3640077592797892e-02  9.6866662672992140e-02 1.4811050106709034e-04 3.3503826954908340e-02  1.0936562279731632e-01 1.5249971682208769e-04 3.3400100862855872e-02  1.2188269568434917e-01 1.6118468023639578e-04 3.3339806679328225e-02  1.3440941112492580e-01 1.6112821106969928e-04 3.3331172695333693e-02  0.0000000000000000e+00 0.0000000000000000e+00 0.0000000000000000e+00  8.6962940379946389e-03 -1.5959794933141848e-03 2.1821734923835184e-02  1.7049454615214316e-02 -3.1385983917737283e-03 2.8224120655922998e-02  2.6371556188117498e-02 -4.2701573313680919e-03 3.1572356690492236e-02  3.6862130193279996e-02 -4.9798291612834431e-03 3.3050930206793769e-02  4.8175969921208796e-02 -5.3600795746523815e-03 3.3620504312403508e-02  6.0019532216090084e-02 -5.5245780782639912e-03 3.3761795980447637e-02  7.2179791922571568e-02 -5.5662535397176709e-03 3.3713171324406606e-02  8.4518389764013949e-02 -5.5477343352346728e-03 3.3599394867822874e-02  9.6952753219924595e-02 -5.5071732088301769e-03 3.3482313792045880e-02  1.0943586846619548e-01 -5.4690815455852798e-03 3.3393905598853219e-02  1.2194505746096634e-01 -5.4494748625789676e-03 3.3347654061838643e-02  1.3446480602890001e-01 -5.4942912123230950e-03 3.3348826993006113e-02  0.0000000000000000e+00 0.0000000000000000e+00 0.0000000000000000e+00  8.7172807891690105e-03 -3.4818631677053617e-03 2.1581462586997349e-02  1.7285576607306719e-02 -6.5870315665094653e-03 2.7788677291269478e-02  2.6821219322101943e-02 -8.7928781026858863e-03 3.1078894804710197e-02  3.7418113628889214e-02 -1.0134354169800484e-02 3.2599718179678792e-02  4.8731838710507847e-02 -1.0838527966732736e-02 3.3258455873569279e-02  6.0510944170631790e-02 -1.1141416694880777e-02 3.3496807574153610e-02  7.2583381230480512e-02 -1.1221500061901483e-02 3.3534058476017689e-02  8.4837703278139720e-02 -1.1194369853079545e-02 3.3489288259391084e-02  9.7204987393776546e-02 -1.1129497463238942e-02 3.3425810878929971e-02  1.0964214661558518e-01 -1.1069382060671344e-02 3.3379954071171086e-02  1.2212678822532212e-01 -1.1046055780914252e-02 3.3371177791716174e-02  1.3462880647991082e-01 -1.1125502511285537e-02 3.3400958637259878e-02  0.0000000000000000e+00 0.0000000000000000e+00 0.0000000000000000e+00  8.8211462001818279e-03 -5.5828720222041691e-03 2.1150264102487874e-02  1.7810048299698174e-02 -1.0296647033248054e-02 2.7046907384763490e-02  2.7676972257611079e-02 -1.3458977955488749e-02 3.0278389700190950e-02  3.8384389879925852e-02 -1.5296403289844794e-02 3.1902264925139603e-02  4.9640341814336013e-02 -1.6239245605965444e-02 3.2719693421757165e-02  6.1279321003547500e-02 -1.6648912158029060e-02 3.3114627175270098e-02  7.3194343144357368e-02 -1.6770386266424377e-02 3.3282191239146518e-02  8.5309548970980101e-02 -1.6754435790168325e-02 3.3337997746243589e-02  9.7570714839199602e-02 -1.6690184040099532e-02 3.3350230759159952e-02  1.0993719702893097e-01 -1.6630486184874303e-02 3.3363068916868313e-02  1.2238422704582227e-01 -1.6616995099569050e-02 3.3404417122108940e-02  1.3486230514692468e-01 -1.6715182398749515e-02 3.3473989757250328e-02  0.0000000000000000e+00 0.0000000000000000e+00 0.0000000000000000e+00  9.1320958689380619e-03 -8.1066225155757426e-03 2.0527700495198364e-02  1.8826331125313751e-02 -1.4418107666961846e-02 2.6003395003200255e-02  2.9057485670650300e-02 -1.8273296316024749e-02 2.9266780376781546e-02  3.9764933159654084e-02 -2.0397617727642821e-02 3.1080611886324067e-02  5.0827889433216304e-02 -2.1486106069773078e-02 3.2123110097648108e-02  6.2221115378732698e-02 -2.1985758052147541e-02 3.2709903376963084e-02  7.3908202089290262e-02 -2.2169628282351025e-02 3.3024956752766822e-02  8.5841290362037789e-02 -2.2199581500947058e-02 3.3188521964133660e-02  9.7971600929552288e-02 -2.2171357366959275e-02 3.3278454567108540e-02  1.1025408241896857e-01 -2.2141927281272150e-02 3.3349084947813731e-02  1.2265506990093636e-01 -2.2156957525486708e-02 3.3437110053855128e-02  1.3510875183915322e-01 -2.2258959472394372e-02 3.3545815946286660e-02  0.0000000000000000e+00 0.0000000000000000e+00 0.0000000000000000e+00  1.0159164176465250e-02 -1.1677833282601514e-02 1.9398893242863757e-02  2.0860239971416540e-02 -1.9076187299802802e-02 2.4841231983828916e-02  3.1151071367092165e-02 -2.3079813889504475e-02 2.8250864373685437e-02  4.1494699598346722e-02 -2.5287637897576255e-02 3.0373488707719290e-02  5.2137453362173548e-02 -2.6485423155525468e-02 3.1652357579260063e-02  6.3167684255887716e-02 -2.7104590209014796e-02 3.2411577962642352e-02  7.4576395827782874e-02 -2.7399854352901293e-02 3.2846528801012617e-02  8.6312195670667918e-02 -2.7524478590036750e-02 3.3091633259999906e-02  9.8312170423671130e-02 -2.7573013671936597e-02 3.3237162040358412e-02  1.1051612228256043e-01 -2.7605180768559140e-02 3.3345810059197727e-02  1.2287272434895434e-01 -2.7667208707277350e-02 3.3459432042456501e-02  1.3531065869534359e-01 -2.7769764467846403e-02 3.3590073075016491e-02  0.0000000000000000e+00 0.0000000000000000e+00 0.0000000000000000e+00  1.3867925274519719e-02 -1.7254618818193006e-02 2.0071010296987570e-02  2.4300817117287276e-02 -2.3906318894255634e-02 2.4127061874018155e-02  3.3619075665195862e-02 -2.7670177791843255e-02 2.7898206143798544e-02  4.3156090036781940e-02 -2.9924376484615621e-02 3.0145071800516548e-02  5.3222694066397187e-02 -3.1275968954645364e-02 3.1505942450479628e-02  6.3858908085767302e-02 -3.2069815837514365e-02 3.2324350068311997e-02  7.5011398317552450e-02 -3.2524215153094851e-02 3.2796322937961628e-02  8.6589737322186028e-02 -3.2780287420032729e-02 3.3065421159944146e-02  9.8501819459464610e-02 -3.2931644687354940e-02 3.3226645085496449e-02  1.1066590098922585e-01 -3.3041457012677050e-02 3.3344943253343078e-02  1.2300459312044426e-01 -3.3155048503345365e-02 3.3462684532662774e-02  1.3543924590967149e-01 -3.3274381483227589e-02 3.3595951928374335e-02  0.0000000000000000e+00 0.0000000000000000e+00 0.0000000000000000e+00  1.0205253391125445e-02 1.9353216209306811e-02 1.2590412076371080e-02  2.0977287759935001e-02 2.4713929321792786e-02 1.9500061304961753e-02  3.1222792865064134e-02 2.8248477578607614e-02 2.3410202075480564e-02  4.1534112879079654e-02 3.0385093330053979e-02 2.5586547911197854e-02  5.2168250244367380e-02 3.1668091501233155e-02 2.6772299711437950e-02  6.3203081056975460e-02 3.2422281021829515e-02 2.7391593257989896e-02  7.4620190243263759e-02 3.2852388121188805e-02 2.7690370200755314e-02  8.6363843728709477e-02 3.3094318477529527e-02 2.7819674148257874e-02  9.8370134933954481e-02 3.3238253619547423e-02 2.7873181560111385e-02  1.1057864953631363e-01 3.3347020032376433e-02 2.7912426731671845e-02  1.2293977114503084e-01 3.3463779661598213e-02 2.7975557641684065e-02  1.3537674559487761e-01 3.3595851229975514e-02 2.8097912806270903e-02  0.0000000000000000e+00 0.0000000000000000e+00 0.0000000000000000e+00  5.3815985764455411e-03 1.3130535859478399e-02 1.3130535859478387e-02  1.7500769986106793e-02 1.9365505779005358e-02 1.9365505779005379e-02  2.8872311729818620e-02 2.3404628660829541e-02 2.3404628660829555e-02  3.9968294230845726e-02 2.5544462307734737e-02 2.5544462307734734e-02  5.1142091051289501e-02 2.6733127974595414e-02 2.6733127974595431e-02  6.2542916732859014e-02 2.7359784019367325e-02 2.7359784019367325e-02  7.4198766120181572e-02 2.7666717537715713e-02 2.7666717537715685e-02  8.6089695870345401e-02 2.7803628371196612e-02 2.7803628371196609e-02  9.8178581569497561e-02 2.7863833768816321e-02 2.7863833768816376e-02  1.1042674468983943e-01 2.7908676306327779e-02 2.7908676306327762e-02  1.2279784052020917e-01 2.7978089204329242e-02 2.7978089204329242e-02  1.3523677447842575e-01 2.8096379237554224e-02 2.8096379237554207e-02  0.0000000000000000e+00 0.0000000000000000e+00 0.0000000000000000e+00  4.3990464621656844e-03 8.6236510068375717e-03 1.3839698369322495e-02  1.5515962880592834e-02 1.4543176322220783e-02 2.0276273131642861e-02  2.6876751540139958e-02 1.8355892549225823e-02 2.4236887428851096e-02  3.8348681947112384e-02 2.0458268066104197e-02 2.6111028604504427e-02  4.9923345874780443e-02 2.1585048506090006e-02 2.7109379795992736e-02  6.1660413505468303e-02 2.2134010153016075e-02 2.7596683874764175e-02  7.3571447250861927e-02 2.2364739027801381e-02 2.7807824569524051e-02  8.5642744007882521e-02 2.2434885855714733e-02 2.7880396345596584e-02  9.7850438342120469e-02 2.2439606504805278e-02 2.7897518654101009e-02  1.1017048992783039e-01 2.2439179612772118e-02 2.7913458375151509e-02  1.2258007338727846e-01 2.2475115151576568e-02 2.7962239705836132e-02  1.3503801328608606e-01 2.2591296237065780e-02 2.8064797086113182e-02  0.0000000000000000e+00 0.0000000000000000e+00 0.0000000000000000e+00  4.0203880989805449e-03 5.9672549367746717e-03 1.4481898840247727e-02  1.4280536287376168e-02 1.0372431197465507e-02 2.1266857589326192e-02  2.5448939538435602e-02 1.3466101506987384e-02 2.5185064484455427e-02  3.7009307081885531e-02 1.5292257772370295e-02 2.6867450574109435e-02  4.8800763198723320e-02 1.6280265167238163e-02 2.7660240838726591e-02  6.0780056750025575e-02 1.6750394234102975e-02 2.7969131196861893e-02  7.2905817954919461e-02 1.6930959074933478e-02 2.8043561385892285e-02  8.5145266284427187e-02 1.6966760447192385e-02 2.8016923775011311e-02  9.7472600441352752e-02 1.6945813415655958e-02 2.7963286901461656e-02  1.0986948819596640e-01 1.6923477142396479e-02 2.7928002426363886e-02  1.2232169700646506e-01 1.6941388237976633e-02 2.7938255603479661e-02  1.3480759501369333e-01 1.7051928171429715e-02 2.8012288120022415e-02  0.0000000000000000e+00 0.0000000000000000e+00 0.0000000000000000e+00  3.8160904323582463e-03 3.8382968324022501e-03 1.4922408796420660e-02  1.3635689592436434e-02 6.7085850273123516e-03 2.1998456794732214e-02  2.4560592311168049e-02 8.8550015183337313e-03 2.5964209391868439e-02  3.6063855651848616e-02 1.0178840406425459e-02 2.7543741799135178e-02  4.7936117074892572e-02 1.0912176417951501e-02 2.8179710714119423e-02  6.0058245572624874e-02 1.1262456966845420e-02 2.8336078361121116e-02  7.2334431527311657e-02 1.1392663287100212e-02 2.8284389585938020e-02  8.4703256309273320e-02 1.1411639210951367e-02 2.8161097123842120e-02  9.7127966670115223e-02 1.1387306200896787e-02 2.8035559145700575e-02  1.0958931764017378e-01 1.1362722313979104e-02 2.7946282860625001e-02  1.2207856629701684e-01 1.1372852572147743e-02 2.7915207161800074e-02  1.3459178445845299e-01 1.1462496492914928e-02 2.7959973617467836e-02  0.0000000000000000e+00 0.0000000000000000e+00 0.0000000000000000e+00  3.7167553531404448e-03 1.9825377547075503e-03 1.5181844095181050e-02  1.3306633690809323e-02 3.3693800487461277e-03 2.2437313898114774e-02  2.4066167121447341e-02 4.4578766193710548e-03 2.6459039703328611e-02  3.5504512517104722e-02 5.1430435619228840e-03 2.7991261930560632e-02  4.7398029868387703e-02 5.5295540670553776e-03 2.8535187950332365e-02  5.9590647998057023e-02 5.7156333324702106e-03 2.8594154974351828e-02  7.1952616566539784e-02 5.7844980509018156e-03 2.8457538434684668e-02  8.4400682340190727e-02 5.7937341248361718e-03 2.8266703368643165e-02  9.6887459443842527e-02 5.7800592896570325e-03 2.8089492985531206e-02  1.0939078113554129e-01 5.7667778637188263e-03 2.7960514966771523e-02  1.2190490434721200e-01 5.7744676767655803e-03 2.7898864496135416e-02  1.3443763286115759e-01 5.8273545258601817e-03 2.7922124856847370e-02  0.0000000000000000e+00 0.0000000000000000e+00 0.0000000000000000e+00  3.6806178028566503e-03 2.4696504411320059e-04 1.5277343032621968e-02  1.3192894111820282e-02 1.7693783753209381e-04 2.2587151102302874e-02  2.3897699247688226e-02 1.7278263575341610e-04 2.6630956723945345e-02  3.5311859367966693e-02 1.5739758093098453e-04 2.8148327015675670e-02  4.7209865167024051e-02 1.4827065018866676e-04 2.8661004736383153e-02  5.9424541934904138e-02 1.4339708690613287e-04 2.8686010153890690e-02  7.1814910099454274e-02 1.4210704501370846e-04 2.8519362096610459e-02  8.4289878147970218e-02 1.4350881648230877e-04 2.8304396932573118e-02  9.6798021755130415e-02 1.4699427799741408e-04 2.8108543503572274e-02  1.0931588012190051e-01 1.5169400888172252e-04 2.7965059899281525e-02  1.2183900014882959e-01 1.5877998999236598e-04 2.7892289081125527e-02  1.3437878305000098e-01 1.6508087197420241e-04 2.7907391790294167e-02  0.0000000000000000e+00 0.0000000000000000e+00 0.0000000000000000e+00  3.6971522829428341e-03 -1.4734954973072338e-03 1.5215823723984901e-02  1.3268434642004626e-02 -3.0131840821260355e-03 2.2452922553388859e-02  2.4031703844159581e-02 -4.1112999226358355e-03 2.6472798481278047e-02  3.5477149356808284e-02 -4.8285404803645382e-03 2.7998606527830577e-02  4.7377361410108690e-02 -5.2336119301433469e-03 2.8537459208001281e-02  5.9574646079104086e-02 -5.4292678611771476e-03 2.8593516296658482e-02  7.1939401366414704e-02 -5.5004209021403041e-03 2.8455640157722006e-02  8.4388829712660082e-02 -5.5066549933107086e-03 2.8264419151558293e-02  9.6876165858536076e-02 -5.4860291653230286e-03 2.8087146269398379e-02  1.0937960346847936e-01 -5.4634265818948920e-03 2.7958042239677738e-02  1.2189456260459518e-01 -5.4575175244122327e-03 2.7896534192218048e-02  1.3442722769008841e-01 -5.4981828024720427e-03 2.7918755023310111e-02  0.0000000000000000e+00 0.0000000000000000e+00 0.0000000000000000e+00  3.7731404279719560e-03 -3.2826465395896683e-03 1.4992532139208340e-02  1.3557426140685181e-02 -6.3468826784569129e-03 2.2033601373830997e-02  2.4492076392208153e-02 -8.5062564719932694e-03 2.5993084606928771e-02  3.6011627611628121e-02 -9.8658939383843829e-03 2.7558146454187870e-02  4.7897630008820191e-02 -1.0618039246051238e-02 2.8183596353176760e-02  6.0028718762373590e-02 -1.0977072175981024e-02 2.8334611451874464e-02  7.2309800537974686e-02 -1.1108688564414172e-02 2.8280835380888433e-02  8.4680730427987155e-02 -1.1124129305910797e-02 2.8156944596060895e-02  9.7106036303545556e-02 -1.1092955942297960e-02 2.80313014942