<?xml version="1.0"?>
<VTKFile type="UnstructuredGrid"  version="0.1"  >
<UnstructuredGrid>
<Piece  NumberOfPoints="2197" NumberOfCells="10368">
<Points>
<DataArray  type="Float64"  NumberOfComponents="3"  format="ascii">0 0 0  0.08333333333333333 0 0  0.1666666666666667 0 0  0.25 0 0  0.3333333333333333 0 0  0.4166666666666667 0 0  0.5 0 0  0.5833333333333334 0 0  0.6666666666666666 0 0  0.75 0 0  0.8333333333333334 0 0  0.9166666666666666 0 0  1 0 0  0 0.08333333333333333 0  0.08333333333333333 0.08333333333333333 0  0.1666666666666667 0.08333333333333333 0  0.25 0.08333333333333333 0  0.3333333333333333 0.08333333333333333 0  0.4166666666666667 0.08333333333333333 0  0.5 0.08333333333333333 0  0.5833333333333334 0.08333333333333333 0  0.6666666666666666 0.08333333333333333 0  0.75 0.08333333333333333 0  0.8333333333333334 0.08333333333333333 0  0.9166666666666666 0.08333333333333333 0  1 0.08333333333333333 0  0 0.1666666666666667 0  0.08333333333333333 0.1666666666666667 0  0.1666666666666667 0.1666666666666667 0  0.25 0.1666666666666667 0  0.3333333333333333 0.1666666666666667 0  0.4166666666666667 0.1666666666666667 0  0.5 0.1666666666666667 0  0.5833333333333334 0.1666666666666667 0  0.6666666666666666 0.1666666666666667 0  0.75 0.1666666666666667 0  0.8333333333333334 0.1666666666666667 0  0.9166666666666666 0.1666666666666667 0  1 0.1666666666666667 0  0 0.25 0  0.08333333333333333 0.25 0  0.1666666666666667 0.25 0  0.25 0.25 0  0.3333333333333333 0.25 0  0.4166666666666667 0.25 0  0.5 0.25 0  0.5833333333333334 0.25 0  0.6666666666666666 0.25 0  0.75 0.25 0  0.8333333333333334 0.25 0  0.9166666666666666 0.25 0  1 0.25 0  0 0.3333333333333333 0  0.08333333333333333 0.3333333333333333 0  0.1666666666666667 0.3333333333333333 0  0.25 0.3333333333333333 0  0.3333333333333333 0.3333333333333333 0  0.4166666666666667 0.3333333333333333 0  0.5 0.3333333333333333 0  0.5833333333333334 0.3333333333333333 0  0.6666666666666666 0.3333333333333333 0  0.75 0.3333333333333333 0  0.8333333333333334 0.3333333333333333 0  0.9166666666666666 0.3333333333333333 0  1 0.3333333333333333 0  0 0.4166666666666667 0  0.08333333333333333 0.4166666666666667 0  0.1666666666666667 0.4166666666666667 0  0.25 0.4166666666666667 0  0.3333333333333333 0.4166666666666667 0  0.4166666666666667 0.4166666666666667 0  0.5 0.4166666666666667 0  0.5833333333333334 0.4166666666666667 0  0.6666666666666666 0.4166666666666667 0  0.75 0.4166666666666667 0  0.8333333333333334 0.4166666666666667 0  0.9166666666666666 0.4166666666666667 0  1 0.4166666666666667 0  0 0.5 0  0.08333333333333333 0.5 0  0.1666666666666667 0.5 0  0.25 0.5 0  0.3333333333333333 0.5 0  0.4166666666666667 0.5 0  0.5 0.5 0  0.5833333333333334 0.5 0  0.6666666666666666 0.5 0  0.75 0.5 0  0.8333333333333334 0.5 0  0.9166666666666666 0.5 0  1 0.5 0  0 0.5833333333333334 0  0.08333333333333333 0.5833333333333334 0  0.1666666666666667 0.5833333333333334 0  0.25 0.5833333333333334 0  0.3333333333333333 0.5833333333333334 0  0.4166666666666667 0.5833333333333334 0  0.5 0.5833333333333334 0  0.5833333333333334 0.5833333333333334 0  0.6666666666666666 0.5833333333333334 0  0.75 0.5833333333333334 0  0.8333333333333334 0.5833333333333334 0  0.9166666666666666 0.5833333333333334 0  1 0.5833333333333334 0  0 0.6666666666666666 0  0.08333333333333333 0.6666666666666666 0  0.1666666666666667 0.6666666666666666 0  0.25 0.6666666666666666 0  0.3333333333333333 0.6666666666666666 0  0.4166666666666667 0.6666666666666666 0  0.5 0.6666666666666666 0  0.5833333333333334 0.6666666666666666 0  0.6666666666666666 0.6666666666666666 0  0.75 0.6666666666666666 0  0.8333333333333334 0.6666666666666666 0  0.9166666666666666 0.6666666666666666 0  1 0.6666666666666666 0  0 0.75 0  0.08333333333333333 0.75 0  0.1666666666666667 0.75 0  0.25 0.75 0  0.3333333333333333 0.75 0  0.4166666666666667 0.75 0  0.5 0.75 0  0.5833333333333334 0.75 0  0.6666666666666666 0.75 0  0.75 0.75 0  0.8333333333333334 0.75 0  0.9166666666666666 0.75 0  1 0.75 0  0 0.8333333333333334 0  0.08333333333333333 0.8333333333333334 0  0.1666666666666667 0.8333333333333334 0  0.25 0.8333333333333334 0  0.3333333333333333 0.8333333333333334 0  0.4166666666666667 0.8333333333333334 0  0.5 0.8333333333333334 0  0.5833333333333334 0.8333333333333334 0  0.6666666666666666 0.8333333333333334 0  0.75 0.8333333333333334 0  0.8333333333333334 0.8333333333333334 0  0.9166666666666666 0.8333333333333334 0  1 0.8333333333333334 0  0 0.9166666666666666 0  0.08333333333333333 0.9166666666666666 0  0.1666666666666667 0.9166666666666666 0  0.25 0.9166666666666666 0  0.3333333333333333 0.9166666666666666 0  0.4166666666666667 0.9166666666666666 0  0.5 0.9166666666666666 0  0.5833333333333334 0.9166666666666666 0  0.6666666666666666 0.9166666666666666 0  0.75 0.9166666666666666 0  0.8333333333333334 0.9166666666666666 0  0.9166666666666666 0.9166666666666666 0  1 0.9166666666666666 0  0 1 0  0.08333333333333333 1 0  0.1666666666666667 1 0  0.25 1 0  0.3333333333333333 1 0  0.4166666666666667 1 0  0.5 1 0  0.5833333333333334 1 0  0.6666666666666666 1 0  0.75 1 0  0.8333333333333334 1 0  0.9166666666666666 1 0  1 1 0  0 0 0.08333333333333333  0.08333333333333333 0 0.08333333333333333  0.1666666666666667 0 0.08333333333333333  0.25 0 0.08333333333333333  0.3333333333333333 0 0.08333333333333333  0.4166666666666667 0 0.08333333333333333  0.5 0 0.08333333333333333  0.5833333333333334 0 0.08333333333333333  0.6666666666666666 0 0.08333333333333333  0.75 0 0.08333333333333333  0.8333333333333334 0 0.08333333333333333  0.9166666666666666 0 0.08333333333333333  1 0 0.08333333333333333  0 0.08333333333333333 0.08333333333333333  0.08333333333333333 0.08333333333333333 0.08333333333333333  0.1666666666666667 0.08333333333333333 0.08333333333333333  0.25 0.08333333333333333 0.08333333333333333  0.3333333333333333 0.08333333333333333 0.08333333333333333  0.4166666666666667 0.08333333333333333 0.08333333333333333  0.5 0.08333333333333333 0.08333333333333333  0.5833333333333334 0.08333333333333333 0.08333333333333333  0.6666666666666666 0.08333333333333333 0.08333333333333333  0.75 0.08333333333333333 0.08333333333333333  0.8333333333333334 0.08333333333333333 0.08333333333333333  0.9166666666666666 0.08333333333333333 0.08333333333333333  1 0.08333333333333333 0.08333333333333333  0 0.1666666666666667 0.08333333333333333  0.08333333333333333 0.1666666666666667 0.08333333333333333  0.1666666666666667 0.1666666666666667 0.08333333333333333  0.25 0.1666666666666667 0.08333333333333333  0.3333333333333333 0.1666666666666667 0.08333333333333333  0.4166666666666667 0.1666666666666667 0.08333333333333333  0.5 0.1666666666666667 0.08333333333333333  0.5833333333333334 0.1666666666666667 0.08333333333333333  0.6666666666666666 0.1666666666666667 0.08333333333333333  0.75 0.1666666666666667 0.08333333333333333  0.8333333333333334 0.1666666666666667 0.08333333333333333  0.9166666666666666 0.1666666666666667 0.08333333333333333  1 0.1666666666666667 0.08333333333333333  0 0.25 0.08333333333333333  0.08333333333333333 0.25 0.08333333333333333  0.1666666666666667 0.25 0.08333333333333333  0.25 0.25 0.08333333333333333  0.3333333333333333 0.25 0.08333333333333333  0.4166666666666667 0.25 0.08333333333333333  0.5 0.25 0.08333333333333333  0.5833333333333334 0.25 0.08333333333333333  0.6666666666666666 0.25 0.08333333333333333  0.75 0.25 0.08333333333333333  0.8333333333333334 0.25 0.08333333333333333  0.9166666666666666 0.25 0.08333333333333333  1 0.25 0.08333333333333333  0 0.3333333333333333 0.08333333333333333  0.08333333333333333 0.3333333333333333 0.08333333333333333  0.1666666666666667 0.3333333333333333 0.08333333333333333  0.25 0.3333333333333333 0.08333333333333333  0.3333333333333333 0.3333333333333333 0.08333333333333333  0.4166666666666667 0.3333333333333333 0.08333333333333333  0.5 0.3333333333333333 0.08333333333333333  0.5833333333333334 0.3333333333333333 0.08333333333333333  0.6666666666666666 0.3333333333333333 0.08333333333333333  0.75 0.3333333333333333 0.08333333333333333  0.8333333333333334 0.3333333333333333 0.08333333333333333  0.9166666666666666 0.3333333333333333 0.08333333333333333  1 0.3333333333333333 0.08333333333333333  0 0.4166666666666667 0.08333333333333333  0.08333333333333333 0.4166666666666667 0.08333333333333333  0.1666666666666667 0.4166666666666667 0.08333333333333333  0.25 0.4166666666666667 0.08333333333333333  0.3333333333333333 0.4166666666666667 0.08333333333333333  0.4166666666666667 0.4166666666666667 0.08333333333333333  0.5 0.4166666666666667 0.08333333333333333  0.5833333333333334 0.4166666666666667 0.08333333333333333  0.6666666666666666 0.4166666666666667 0.08333333333333333  0.75 0.4166666666666667 0.08333333333333333  0.8333333333333334 0.4166666666666667 0.08333333333333333  0.9166666666666666 0.4166666666666667 0.08333333333333333  1 0.4166666666666667 0.08333333333333333  0 0.5 0.08333333333333333  0.08333333333333333 0.5 0.08333333333333333  0.1666666666666667 0.5 0.08333333333333333  0.25 0.5 0.08333333333333333  0.3333333333333333 0.5 0.08333333333333333  0.4166666666666667 0.5 0.08333333333333333  0.5 0.5 0.08333333333333333  0.5833333333333334 0.5 0.08333333333333333  0.6666666666666666 0.5 0.08333333333333333  0.75 0.5 0.08333333333333333  0.8333333333333334 0.5 0.08333333333333333  0.9166666666666666 0.5 0.08333333333333333  1 0.5 0.08333333333333333  0 0.5833333333333334 0.08333333333333333  0.08333333333333333 0.5833333333333334 0.08333333333333333  0.1666666666666667 0.5833333333333334 0.08333333333333333  0.25 0.5833333333333334 0.08333333333333333  0.3333333333333333 0.5833333333333334 0.08333333333333333  0.4166666666666667 0.5833333333333334 0.08333333333333333  0.5 0.5833333333333334 0.08333333333333333  0.5833333333333334 0.5833333333333334 0.08333333333333333  0.6666666666666666 0.5833333333333334 0.08333333333333333  0.75 0.5833333333333334 0.08333333333333333  0.8333333333333334 0.5833333333333334 0.083
[...]
<PointData  Vectors="f_35"> 
<DataArray  type="Float64"  Name="f_35"  NumberOfComponents="3" format="ascii">0.0000000000000000e+00 0.0000000000000000e+00 0.0000000000000000e+00  1.4511158442236905e-02 1.8269096246976941e-02 1.8269096246976931e-02  2.4623207407514312e-02 2.4333391724840610e-02 2.4333391724840541e-02  3.3395185030005430e-02 2.8151299377336455e-02 2.8151299377336399e-02  4.2610942461819082e-02 3.0440372208356825e-02 3.0440372208356596e-02  5.2454789601374965e-02 3.1818528242961233e-02 3.1818528242961289e-02  6.2915322652176628e-02 3.2628539254969738e-02 3.2628539254969904e-02  7.3916414733104466e-02 3.3092499899939377e-02 3.3092499899939370e-02  8.5356333337964260e-02 3.3355187899017064e-02 3.3355187899016994e-02  9.7138647655328633e-02 3.3512157732406171e-02 3.3512157732406171e-02  1.0916865196866631e-01 3.3628278310735830e-02 3.3628278310735976e-02  1.2138883818141261e-01 3.3747752944445333e-02 3.3747752944445333e-02  1.3368894833661271e-01 3.3878121575110755e-02 3.3878121575110227e-02  0.0000000000000000e+00 0.0000000000000000e+00 0.0000000000000000e+00  1.0352473557637673e-02 1.2825544375780915e-02 1.9597447837610298e-02  2.1094591697831625e-02 1.9723760955005564e-02 2.4907960523482299e-02  3.0844537320652850e-02 2.3700296812008585e-02 2.8521066711576819e-02  4.0901362211907884e-02 2.5872694881619106e-02 3.0662132957507533e-02  5.1326446573779633e-02 2.7048185132727599e-02 3.1952989485773263e-02  6.2182420560090913e-02 2.7655268774550528e-02 3.2707814116451246e-02  7.3443694770108869e-02 2.7942538071256157e-02 3.3136734408851350e-02  8.5045903463939990e-02 2.8062685114891423e-02 3.3377030099470004e-02  9.6919458451222643e-02 2.8109685228585382e-02 3.3519410237750576e-02  1.0899935061011137e-01 2.8145075941328403e-02 3.3627277337538460e-02  1.2123662167342851e-01 2.8206017690071288e-02 3.3745484300269780e-02  1.3354699618451285e-01 2.8325690870553238e-02 3.3877574674746481e-02  0.0000000000000000e+00 0.0000000000000000e+00 0.0000000000000000e+00  8.9894138590436417e-03 8.8975508765887813e-03 2.0682333121408505e-02  1.8894706361354832e-02 1.5097690394827397e-02 2.6159169509006635e-02  2.8688602347949080e-02 1.8878891015135887e-02 2.9535933750351455e-02  3.9144226796024202e-02 2.0963301154216962e-02 3.1379377992998808e-02  4.9994684425799102e-02 2.2018407607164680e-02 3.2431689747258408e-02  6.1214186495434780e-02 2.2496312297833294e-02 3.3014066181570836e-02  7.2754383003511489e-02 2.2666099408664524e-02 3.3322410087654422e-02  8.4554667536013969e-02 2.2688258421580450e-02 3.3480068863081906e-02  9.6559468673265689e-02 2.2656724422605166e-02 3.3565895746270009e-02  1.0872000207102397e-01 2.2629706418099700e-02 3.3634832954281789e-02  1.2099805173851358e-01 2.2643476532346524e-02 3.3724069148359653e-02  1.3332923282609183e-01 2.2760591177848313e-02 3.3835440601444396e-02  0.0000000000000000e+00 0.0000000000000000e+00 0.0000000000000000e+00  8.6226979189991410e-03 6.1829835576553407e-03 2.1432330507778940e-02  1.7733734467135213e-02 1.0887105458983129e-02 2.7282042652668925e-02  2.7204024081646891e-02 1.4013157487858722e-02 3.0607791948724847e-02  3.7694149601824482e-02 1.5815036388217692e-02 3.2233923855131942e-02  4.8759459157544302e-02 1.6723992393947715e-02 3.3049538193858453e-02  6.0238530852543173e-02 1.7108932703364686e-02 3.3432313856341905e-02  7.2014661044794176e-02 1.7214299499886794e-02 3.3587867093690063e-02  8.4001841767742544e-02 1.7189646721562035e-02 3.3634253152685284e-02  9.6140195113263507e-02 1.7122332681189682e-02 3.3639938108389535e-02  1.0838683626491726e-01 1.7064276800684144e-02 3.3649342932338143e-02  1.2070792453029208e-01 1.7054856625604513e-02 3.3688020588928912e-02  1.3306370599880166e-01 1.7163498923005387e-02 3.3758793874898135e-02  0.0000000000000000e+00 0.0000000000000000e+00 0.0000000000000000e+00  8.4901638480630610e-03 3.9806764448114731e-03 2.1931106301950946e-02  1.7136197321619289e-02 7.0839039553795254e-03 2.8096404466484939e-02  2.6279895485983487e-02 9.2658423548329597e-03 3.1460412798433098e-02  3.6666400602598181e-02 1.0579055725435596e-02 3.2966533226377985e-02  4.7803489663929978e-02 1.1254883000033198e-02 3.3609876195552370e-02  5.9434871275048734e-02 1.1536854443721418e-02 3.3827393598463665e-02  7.1377003270273950e-02 1.1603943778477050e-02 3.3846831799601934e-02  8.3508660996710088e-02 1.1570878413873772e-02 3.3788939824784224e-02  9.5756050329179013e-02 1.1505881169138553e-02 3.3716430045424177e-02  1.0807425873057742e-01 1.1449226897339820e-02 3.3664894985456884e-02  1.2043271071498664e-01 1.1436714630645044e-02 3.3650810312522018e-02  1.3281210405055452e-01 1.1522356994230336e-02 3.3679500760911286e-02  0.0000000000000000e+00 0.0000000000000000e+00 0.0000000000000000e+00  8.4401478712499110e-03 2.0228247727950353e-03 2.2220617146271607e-02  1.6847558813734762e-02 3.5502621120549879e-03 2.8580560666127203e-02  2.5778036717069488e-02 4.6567993373849452e-03 3.1992288275135429e-02  3.6062959748137793e-02 5.3393951226160859e-03 3.3443677832816383e-02  4.7209576643781635e-02 5.6963609166637910e-03 3.3987378588167937e-02  5.8914543543604384e-02 5.8461634004477077e-03 3.4100456332565761e-02  7.0951375795984734e-02 5.8809920636637928e-03 3.4029398196075998e-02  8.3171511220657385e-02 5.8619307025909980e-03 3.3899692954341788e-02  9.5488165570487532e-02 5.8260608055751258e-03 3.3771809834076176e-02  1.0785227955309330e-01 5.7949651515177133e-03 3.3675922884998932e-02  1.2023610146767816e-01 5.7921663527829769e-03 3.3623582781567116e-02  1.3263215185237631e-01 5.8406968848334889e-03 3.3621735279230722e-02  0.0000000000000000e+00 0.0000000000000000e+00 0.0000000000000000e+00  8.4208574321362906e-03 1.7073382553455113e-04 2.2325894296279267e-02  1.6750450644905511e-02 1.4853226406204596e-04 2.8747005559776707e-02  2.5609899733485410e-02 1.2986142627302864e-04 3.2174499190735707e-02  3.5858899114821846e-02 1.1392481352990071e-04 3.3607748295470329e-02  4.7006175031678317e-02 1.0380822073858722e-04 3.4117776118380211e-02  5.8734002785552034e-02 1.0049762265810025e-04 3.4195122584487779e-02  7.0801611634216083e-02 1.0211432387297913e-04 3.4092804431085297e-02  8.3050882516746014e-02 1.0659470242631578e-04 3.3938020678788969e-02  9.5390499240980448e-02 1.1297253447287446e-04 3.3790597671342786e-02  1.0776929173075059e-01 1.1967047525673773e-04 3.3678710847566004e-02  1.2016230622534381e-01 1.3178119376536349e-04 3.3613233144474917e-02  1.3256350316465768e-01 1.3476863370667219e-04 3.3600334088331081e-02  0.0000000000000000e+00 0.0000000000000000e+00 0.0000000000000000e+00  8.4167671643975133e-03 -1.6701499727160213e-03 2.2254202178033873e-02  1.6811377411758886e-02 -3.2485195111090067e-03 2.8601164079120014e-02  2.5747601635730869e-02 -4.3971123485170857e-03 3.2000007470337835e-02  3.6043904176817868e-02 -5.1116836014448519e-03 3.3442333732461742e-02  4.7200715417071042e-02 -5.4884196771111445e-03 3.3981368750874603e-02  5.8910586644916454e-02 -5.6436083562107471e-03 3.4093539853399177e-02  7.0948405762881334e-02 -5.6747826214761663e-03 3.4023211347248478e-02  8.3166996651259692e-02 -5.6467951219202712e-03 3.3894672450313239e-02  9.5481552483745846e-02 -5.5986176988748297e-03 3.3767865320318113e-02  1.0784219992332719e-01 -5.5546420803898504e-03 3.3672331150497822e-02  1.2022666732717606e-01 -5.5295808768035266e-03 3.3622197075591380e-02  1.3262012767501188e-01 -5.5716463035322076e-03 3.3620423189404530e-02  0.0000000000000000e+00 0.0000000000000000e+00 0.0000000000000000e+00  8.4360995506701959e-03 -3.5971755798803098e-03 2.1999786120506539e-02  1.7060283871445620e-02 -6.7730053721836887e-03 2.8134508901202660e-02  2.6221893852248393e-02 -9.0037077947900754e-03 3.1471808045386372e-02  3.6634469038518025e-02 -1.0353236095970612e-02 3.2959963521534297e-02  4.7789407271766803e-02 -1.1044406630541740e-02 3.3596859236098370e-02  5.9428724641575621e-02 -1.1329189477942267e-02 3.3813829899633767e-02  7.1370944973509015e-02 -1.1391566719288317e-02 3.3835494081996279e-02  8.3498893486722681e-02 -1.1349965619170253e-02 3.3780114748841981e-02  9.5741951945655809e-02 -1.1274057705817863e-02 3.3709717719736264e-02  1.0805346524978110e-01 -1.1206029899768512e-02 3.3658850174977009e-02  1.2041273426173338e-01 -1.1176829312654310e-02 3.3648435560084768e-02  1.3278753256965975e-01 -1.1254639002623341e-02 3.3677170327619126e-02  0.0000000000000000e+00 0.0000000000000000e+00 0.0000000000000000e+00  8.5418468227468191e-03 -5.7590003779845467e-03 2.1537453809201419e-02  1.7606743231591362e-02 -1.0535881357731938e-02 2.7337851878039492e-02  2.7137671857004001e-02 -1.3760046983862425e-02 3.0607929592451039e-02  3.7658592652240988e-02 -1.5586640940241276e-02 3.2218211685733023e-02  4.8748082814379069e-02 -1.6506953179121764e-02 3.3028252910535794e-02  6.0231337712285699e-02 -1.6890987433482246e-02 3.3414215176725492e-02  7.2004218885591442e-02 -1.6991637847457101e-02 3.3574012362025493e-02  8.3984546127469875e-02 -1.6959897183318213e-02 3.3624293032802094e-02  9.6116367096834091e-02 -1.6884327705991374e-02 3.3632839315857720e-02  1.0835419588415679e-01 -1.6816990612914404e-02 3.3643167483697889e-02  1.2067576389132584e-01 -1.6798830027593654e-02 3.3685504663508038e-02  1.3302583756380634e-01 -1.6897142870312579e-02 3.3756098759413947e-02  0.0000000000000000e+00 0.0000000000000000e+00 0.0000000000000000e+00  8.8215475974395535e-03 -8.2178829531212617e-03 2.0871348156124053e-02  1.8755655995637725e-02 -1.4804567807690485e-02 2.6153927814570092e-02  2.8617533528523736e-02 -1.8636206100961054e-02 2.9517466701979651e-02  3.9135638535686613e-02 -2.0736601050953082e-02 3.1345130605015405e-02  4.9988984658313446e-02 -2.1789929173407250e-02 3.2406554388587604e-02  6.1205206354992735e-02 -2.2265272022964900e-02 3.2995897174041382e-02  7.2736087193418647e-02 -2.2431635069347821e-02 3.3310438800120822e-02  8.4526348708596974e-02 -2.2449097574470313e-02 3.3472538321952752e-02  9.6523422845890341e-02 -2.2412172202887406e-02 3.3561357194308680e-02  1.0867535278586234e-01 -2.2376286581746355e-02 3.3631756436845330e-02  1.2095072431062967e-01 -2.2389223842776161e-02 3.3722646806002288e-02  1.3327664513836440e-01 -2.2494366861128639e-02 3.3832889213531239e-02  0.0000000000000000e+00 0.0000000000000000e+00 0.0000000000000000e+00  1.0293032752478492e-02 -1.2061120997201828e-02 1.9512532940331444e-02  2.0950681471331400e-02 -1.9454446157816017e-02 2.4889784053693673e-02  3.0910301809294289e-02 -2.3444657709439723e-02 2.8449971020160999e-02  4.0920534894657967e-02 -2.5609657921829308e-02 3.0640570070284284e-02  5.1328701305321335e-02 -2.6793649364682020e-02 3.1938181299573924e-02  6.2165839599705862e-02 -2.7404784730509977e-02 3.2701325577649765e-02  7.3411226156958595e-02 -2.7694291633731948e-02 3.3135317678281428e-02  8.5001325892772261e-02 -2.7814194061641335e-02 3.3378358532728115e-02  9.6866919208964092e-02 -2.7859400918887230e-02 3.3522476703151935e-02  1.0894032405231323e-01 -2.7888374133741262e-02 3.3631013769405957e-02  1.2117319306240981e-01 -2.7952471944901965e-02 3.3746849888950298e-02  1.3348428516848973e-01 -2.8060068755926509e-02 3.3878492504594855e-02  0.0000000000000000e+00 0.0000000000000000e+00 0.0000000000000000e+00  1.4291305848295861e-02 -1.7575075503256044e-02 1.9964864804455737e-02  2.4959646033504576e-02 -2.4285874761193999e-02 2.4136388766207332e-02  3.3425794527569795e-02 -2.7932397249748723e-02 2.8180617655100305e-02  4.2610293581303846e-02 -3.0226811748339681e-02 3.0451753739950085e-02  5.2425974989928556e-02 -3.1589550101567415e-02 3.1815372029639077e-02  6.2857458026987584e-02 -3.2395419418720907e-02 3.2628315535152649e-02  7.3846008236301261e-02 -3.2855050881435054e-02 3.3092985792244213e-02  8.5278454999773809e-02 -3.3113301602056597e-02 3.3356598275334159e-02  9.7055945018484122e-02 -3.3265372529101001e-02 3.3514490791026183e-02  1.0909059127932852e-01 -3.3375148429818584e-02 3.3631814313823345e-02  1.2130776652984644e-01 -3.3491108045495405e-02 3.3750169392858263e-02  1.3361474919812658e-01 -3.3612015297210564e-02 3.3882322316950174e-02  0.0000000000000000e+00 0.0000000000000000e+00 0.0000000000000000e+00  1.0352473557637663e-02 1.9597447837610207e-02 1.2825544375780942e-02  2.1094591697831556e-02 2.4907960523482302e-02 1.9723760955005672e-02  3.0844537320652912e-02 2.8521066711576767e-02 2.3700296812008768e-02  4.0901362211907835e-02 3.0662132957507457e-02 2.5872694881619397e-02  5.1326446573779612e-02 3.1952989485773374e-02 2.7048185132727526e-02  6.2182420560090872e-02 3.2707814116451323e-02 2.7655268774550466e-02  7.3443694770109091e-02 3.3136734408851204e-02 2.7942538071256268e-02  8.5045903463939670e-02 3.3377030099469913e-02 2.8062685114891680e-02  9.6919458451222865e-02 3.3519410237750416e-02 2.8109685228585465e-02  1.0899935061011114e-01 3.3627277337538404e-02 2.8145075941328427e-02  1.2123662167342837e-01 3.3745484300269642e-02 2.8206017690071254e-02  1.3354699618451285e-01 3.3877574674746259e-02 2.8325690870553689e-02  0.0000000000000000e+00 0.0000000000000000e+00 0.0000000000000000e+00  5.7056718480111741e-03 1.3532546925115756e-02 1.3532546925115701e-02  1.7417339580539853e-02 1.9556758574526722e-02 1.9556758574526708e-02  2.8288323464634991e-02 2.3731040086845307e-02 2.3731040086845255e-02  3.9281013021680120e-02 2.5823856326859004e-02 2.5823856326858980e-02  5.0267065760037685e-02 2.7006869525494272e-02 2.7006869525494477e-02  6.1507876638424649e-02 2.7620088879824339e-02 2.7620088879824367e-02  7.3016487145579984e-02 2.7916224545228172e-02 2.7916224545228165e-02  8.4769692809354341e-02 2.8044778846824173e-02 2.8044778846824138e-02  9.6727147823670742e-02 2.8099107356275729e-02 2.8099107356275715e-02  1.0884864894083844e-01 2.8140528956600713e-02 2.8140528956600734e-02  1.2109658568471771e-01 2.8208258790317187e-02 2.8208258790317058e-02  1.3341333833150321e-01 2.8325044795711591e-02 2.8325044795711456e-02  0.0000000000000000e+00 0.0000000000000000e+00 0.0000000000000000e+00  4.2301830302453750e-03 8.7323730399480638e-03 1.4270072616867016e-02  1.5212066149870392e-02 1.4743257127446837e-02 2.0562010526760717e-02  2.6154515764830789e-02 1.8594590927090076e-02 2.4639290045542484e-02  3.7597068668758726e-02 2.0698656395747646e-02 2.6422316372671058e-02  4.8999445815420713e-02 2.1819862652669664e-02 2.7406941840417767e-02  6.0598568559500507e-02 2.2353748668075109e-02 2.7868676002871778e-02  7.2373794921313309e-02 2.2570880263934175e-02 2.8063149716934511e-02  8.4314190267859468e-02 2.2629890892714295e-02 2.8123901565433734e-02  9.6394608152408634e-02 2.2626562518432300e-02 2.8133305126438374e-02  1.0859028593806069e-01 2.2621023188112249e-02 2.8144956304311186e-02  1.2087832827263592e-01 2.2653065762115801e-02 2.8192066475782065e-02  1.3321488417261376e-01 2.2767608288612112e-02 2.8293618630048072e-02  0.0000000000000000e+00 0.0000000000000000e+00 0.0000000000000000e+00  3.8296378845506015e-03 6.0109541097108721e-03 1.4952094872621844e-02  1.3939162605888089e-02 1.0537149029559340e-02 2.1626870168468221e-02  2.4687241343583889e-02 1.3643653195828611e-02 2.5637815229828005e-02  3.6207166830689433e-02 1.5482610337872885e-02 2.7224718916585979e-02  4.7836122176953280e-02 1.6460721680975652e-02 2.7990662307921296e-02  5.9690671324724089e-02 1.6917559548953184e-02 2.8261061903786265e-02  7.1689546916852420e-02 1.7085129774251973e-02 2.8310693269066253e-02  8.3804986488806882e-02 1.7110045349010793e-02 2.8266641704602503e-02  9.6009619381526343e-02 1.7081086683240255e-02 2.8201756028832230e-02  1.0828489420294324e-01 1.7053145057305784e-02 2.8159884525349687e-02  1.2061567156371239e-01 1.7067549028596203e-02 2.8166576631901231e-02  1.3297914380830103e-01 1.7178486923631092e-02 2.8237644706475482e-02  0.0000000000000000e+00 0.0000000000000000e+00 0.0000000000000000e+00  3.5894114624292605e-03 3.8447122084621587e-03 1.5416345650122813e-02  1.3239049854323483e-02 6.8029577475892042e-03 2.2410841577273258e-02  2.3758775207474315e-02 8.9635011023061709e-03 2.6462477971784082e-02  3.5216669917222110e-02 1.0297073362421003e-02 2.7942274914441064e-02  4.6940157352410458e-02 1.1024785492772970e-02 2.8537574446822488e-02  5.8946376101404067e-02 1.1366406445316656e-02 2.8645685502326157e-02  7.1102750382260480e-02 1.1487094189806733e-02 2.8562018405948672e-02  8.3352893997114472e-02 1.1498083642901797e-02 2.8416398267809232e-02  9.5658401711948671e-02 1.1467804239835875e-02 2.8276388625111896e-02  1.0799978741011465e-01 1.1439118573002506e-02 2.8178141369907487e-02  1.2036753100342999e-01 1.1447403804192480e-02 2.8141606458916755e-02  1.3275833458367234e-01 1.1538843268711615e-02 2.8181801425892744e-02  0.0000000000000000e+00 0.0000000000000000e+00 0.0000000000000000e+00  3.4792323362203758e-03 1.9675497300056860e-03 1.5683729642750065e-02  1.2891030564143433e-02 3.3992035019287754e-03 2.2880738057907458e-02  2.3243737743119750e-02 4.4954070100929047e-03 2.6985509503643670e-02  3.4633486735442892e-02 5.1844134414686998e-03 2.8413763998071124e-02  4.6384215986350667e-02 5.5675349533872796e-03 2.8909816425949732e-02  5.8465488088813002e-02 5.7491846135765559e-03 2.8914935657993756e-02  7.0712168479033929e-02 5.8137074370865219e-03 2.8741676002903480e-02  8.3044627036577209e-02 5.8196514390221315e-03 2.8525378480728166e-02  9.5413960223431224e-02 5.8037050334293671e-03 2.8331598733453887e-02  1.0779782302763280e-01 5.7891368810213352e-03 2.8192097474487032e-02  1.2019029035756074e-01 5.7971617939555414e-03 2.8123901850367280e-02  1.3260080883206080e-01 5.8524838228061118e-03 2.8141762468479072e-02  0.0000000000000000e+00 0.0000000000000000e+00 0.0000000000000000e+00  3.4405263930699787e-03 2.0700921343007567e-04 1.5781381537869860e-02  1.2771879525596086e-02 1.4472862675843007e-04 2.3042441190642478e-02  2.3069182772044321e-02 1.3739101978013578e-04 2.7165061411948379e-02  3.4435400414502590e-02 1.1915852363593318e-04 2.8575788611430585e-02  4.6193095788339154e-02 1.0802039333833003e-04 2.9038470655068409e-02  5.8298166153592137e-02 1.0364442269426666e-04 2.9008321357243499e-02  7.0574428593493194e-02 1.0417073188929426e-04 2.8804088523080196e-02  8.2934047934066987e-02 1.0781206827918149e-04 2.8563163891255999e-02  9.5324470874026068e-02 1.1339521925167429e-04 2.8350447111010313e-02  1.0772217930583022e-01 1.2003780877062892e-04 2.8196267197088509e-02  1.2012325013693192e-01 1.2948844814937542e-04 2.8117062126312570e-02  1.3254077826125071e-01 1.3811354866792054e-04 2.8126960685007241e-02  0.0000000000000000e+00 0.0000000000000000e+00 0.0000000000000000e+00  3.4598170239572594e-03 -1.5408857872021213e-03 1.5715268745233376e-02  1.2853597628074606e-02 -3.1046118106249033e-03 2.2898027253458790e-02  2.3212665778818357e-02 -4.2204003259783216e-03 2.6991301554991468e-02  3.4613419894462941e-02 -4.9472811854779910e-03 2.8410383433415447e-02  4.6374153759201460e-02 -5.3520791716396661e-03 2.8902251871960941e-02  5.8460062074750317e-02 -5.5412281658680828e-03 2.8907008385732832e-02  7.0707964426636613e-02 -5.6041306936371587e-03 2.8734814012015265e-02  8.3039196624528647e-02 -5.6026380606648413e-03 2.8520043340123421e-02  9.5406457179411944e-02 -5.5757499799615967e-03 2.8327585315567446e-02  1.0778792085361613e-01 -5.5483648546729540e-03 2.8189072380561637e-02  1.2018014378655671e-01 -5.5387204750898932e-03 2.8122386694235123e-02  1.3259025707072014e-01 -5.5776644786048289e-03 2.8140523589131775e-02  0.0000000000000000e+00 0.0000000000000000e+00 0.0000000000000000e+00  3.5461484230718036e-03 -3.3794432296997802e-03 1.5478979659032969e-02  1.3160747460564007e-02 -6.4977897859164581e-03 2.2442743447805967e-02  2.3701122177007927e-02 -8.6900833645776818e-03 2.6469845691506441e-02  3.5181320941411048e-02 -1.0064942837922234e-02 2.7933535461329189e-02  4.6924523579820049e-02 -1.0810330082608068e-02 2.8521862228640699e-02  5.8937553772011132e-02 -1.1156024084738593e-02 2.8630848338891540e-02  7.1094523277215438e-02 -1.1273401331262896e-02 2.8549842166560507e-02  8.3341569427871354e-02 -1.1276822031336583e-02 2.8407233204430477e-02  9.5642783467165107e-02 -1.1236444478760634e-02 2.82696591165