<?xml version="1.0"?>
<VTKFile type="UnstructuredGrid"  version="0.1"  >
<UnstructuredGrid>
<Piece  NumberOfPoints="2197" NumberOfCells="10368">
<Points>
<DataArray  type="Float64"  NumberOfComponents="3"  format="ascii">0 0 0  0.09861150878148026 0.01741408824797226 0.01741408824797226  0.191014277696709 0.02316748430335644 0.02316748430335646  0.2822880625290428 0.02678581679864656 0.02678581679864652  0.3737229289401342 0.02904566729488564 0.02904566729488563  0.4655898906181468 0.03045510336804974 0.03045510336804973  0.5579601207748235 0.03132319326660672 0.03132319326660669  0.6508146280940831 0.03185272547556774 0.03185272547556772  0.7440958508812914 0.03218409956507278 0.03218409956507281  0.837733102097761 0.03241720629854906 0.03241720629854905  0.9316482599942141 0.0326274412099622 0.03262744120996217  1.025764338998676 0.03286860071465127 0.03286860071465125  1.119951341337436 0.03317483849294862 0.03317483849294867  0 0.08333333333333333 0  0.09393911756508083 0.09517953530419537 0.0186194600125182  0.1870517549065656 0.1019741242323074 0.02376002287691738  0.2794708125216976 0.1058726353414828 0.02717608427424326  0.3717642569304049 0.1080863252377738 0.02929306412403957  0.4642419656315366 0.1093300184221457 0.03061114489852542  0.5570379052538902 0.1100037528122083 0.03141961706245242  0.6501765898774444 0.1103464524440058 0.03190828199521362  0.7436335634583805 0.1105137317982885 0.03221104924862108  0.8373641805113697 0.1106108848866954 0.03242385643945448  0.9313155443908622 0.1107156660721498 0.03262068145622433  1.025431384426988 0.1108856836659055 0.03285758580173765  1.119618524842273 0.1111841178539872 0.0331573974303384  0 0.1666666666666667 0  0.09291166509958086 0.1748319784863878 0.01932657216756901  0.1849326653863531 0.1807599418469222 0.02484048592912484  0.2772562399277353 0.1845435611832071 0.02813866289080233  0.3698750982880714 0.186717263143337 0.03001255392573201  0.4627480850074137 0.1878773683765068 0.03111500020877035  0.5558931828516109 0.1884414181887495 0.03175707608092354  0.6493056621177893 0.1886711911557618 0.03212004321817798  0.7429596662636793 0.1887342125526859 0.03232885130255743  0.8368195935647925 0.1887397928955618 0.03247108649750013  0.9308468280486244 0.1887658440596191 0.03261495177972809  1.024999400798726 0.1888755449771452 0.03280806856871115  1.119208853751202 0.1891702182031829 0.03306779739789027  0 0.25 0  0.09263465721641762 0.2556775125612896 0.01980049326019837  0.1839115800131959 0.2600948065025135 0.02572780826861136  0.2758059304536544 0.2632086877357576 0.02907302040772461  0.3683784247381683 0.2651069850684478 0.03081373613425122  0.4614061163088427 0.2661360428301326 0.0317316006246026  0.5547702750698972 0.266618812003573 0.03219678640078279  0.6483947561564699 0.2667896885250913 0.03241003768002168  0.7422226095303031 0.2668056304054248 0.03249869257352888  0.8362086257740886 0.2667697061889377 0.03254544329498781  0.9303161342438442 0.2667542088288348 0.03261127702913977  1.024509539625211 0.2668260342222277 0.03273272103916799  1.118746277340695 0.2670971190238787 0.03292306657968073  0 0.3333333333333333 0  0.09253603924724747 0.3370114566912107 0.02012906095451535  0.183411579552665 0.3399090769701062 0.02634181711681164  0.2749433013388446 0.3420695826122736 0.02978063809208606  0.3673552330249977 0.3434573442027951 0.03147101146108654  0.4603927189994904 0.3442358735615585 0.03227009673036186  0.5538605311032844 0.3446061467015943 0.03259921681314325  0.6476187070675173 0.3447345742180503 0.0326854122942114  0.7415715726448074 0.3447401367522577 0.0326651502729112  0.8356550422795614 0.3447035975064542 0.03262078331366575  0.9298265272991331 0.3446816279550503 0.03260817285385853  1.024053687502622 0.3447336276514908 0.03265511740332879  1.118315579709755 0.3449475600732971 0.03277341814578397  0 0.4166666666666667 0  0.09249888039776333 0.4185733012305846 0.02032524641355123  0.1831726004791712 0.4200152652035753 0.02669935298349733  0.2744854269257415 0.4211203673479611 0.03021223278817907  0.3667637196963687 0.4218531967253092 0.03189003515492624  0.4597679130425157 0.422277522093876 0.03262564869987405  0.5532719614257551 0.4224871526133092 0.0328724464812362  0.6470981077829449 0.4225662512993568 0.03287654923533076  0.7411226071733281 0.4225779485014975 0.03278263686432303  0.835265176059245 0.4225665731348058 0.03267444622106644  0.9294763163496866 0.4225626629481808 0.03260505032791783  1.023725669526608 0.4226041365179567 0.03259759635231608  1.118004713087809 0.4227287109402486 0.03266313183727765  0 0.5 0  0.09248166192480632 0.5002414670951233 0.02039901628472716  0.1830875774895961 0.500261997092923 0.02682301836007965  0.2743266904341904 0.5002786293975617 0.03036134992979334  0.3665551387081181 0.500292317102582 0.03203620452487988  0.4595418171255872 0.5003070937717572 0.03275063293440315  0.5530533156779844 0.500324628295753 0.03296896440854367  0.6468997637634661 0.5003448460537844 0.03294416274502412  0.740947344810963 0.5003674836306996 0.03282395701229132  0.8351096624329276 0.500392747251825 0.0326927439527082  0.9293341633126402 0.5004188115566157 0.03260242225680744  1.023592157449603 0.500452244809954 0.03257532794368506  1.117876326165165 0.5004691563626941 0.03262109240617671  0 0.5833333333333334 0  0.09247323874118274 0.5819279406151147 0.0203547783935873  0.183129052115428 0.5805195596752273 0.02672064164288986  0.2744357317315975 0.5794433459923335 0.03022928292481312  0.366710973215509 0.5787358329158033 0.03190169290261342  0.4597138331716187 0.5783395605758619 0.03263173345067544  0.5532180005907251 0.578163842957271 0.03287437208344438  0.6470448515187952 0.5781243325134806 0.03287584604447665  0.7410699689259318 0.5781573206936097 0.03278037655278446  0.8352132305936113 0.578218579974577 0.03267137570709044  0.9294245972508023 0.5782744091383412 0.03260087703915302  1.023676998255415 0.5782980523933918 0.03259382385383582  1.117953020262494 0.578209517239139 0.03265760870477426  0 0.6666666666666666 0  0.09247881383845004 0.6635487823680012 0.02019171604314962  0.1833237754361663 0.6606578536842065 0.02638769748227727  0.2748432980202873 0.6585138250693822 0.02981667509928854  0.3672482702955484 0.6571445422148757 0.03149426187321255  0.4602836991893582 0.6563889971200209 0.03228160967726438  0.5537528723800169 0.6560491200969764 0.03260249537616885  0.6475131274773276 0.6559580040634533 0.0326837648452987  0.7414673920707969 0.6559957097028146 0.0326606988959457  0.8355519667259818 0.6560805387018547 0.03261487714571925  0.9297234853930051 0.656153955221754 0.03260040710565665  1.023956055528312 0.6561621182050321 0.03264807304681176  1.118212565307568 0.6559910023186747 0.03276341444482284  0 0.75 0  0.09255340891976416 0.7449716174366078 0.01990023971019508  0.1837896503376065 0.7405255926469049 0.02581000813665689  0.2756536895544923 0.737409530050015 0.02913048612342994  0.3682141528661988 0.7355145032894295 0.03084751491730828  0.4612419306084124 0.7344983072646983 0.031746587407548  0.5546108284799447 0.7340405397723262 0.0322001968119509  0.6482392870304274 0.7339045313380408 0.03240697214024464  0.7420687079484038 0.733930704126276 0.03249233781824652  0.8360549797702025 0.7340132615945599 0.03253750464495343  0.930161511970336 0.7340796333689623 0.03260151410953031  1.024361096102918 0.7340606676632077 0.03272327026292645  1.118591638501015 0.733843576112176 0.03291007752313399  0 0.8333333333333334 0  0.09283690644297787 0.8259941431863835 0.01948978935149021  0.1847451047962644 0.8199520164259139 0.02497311131125722  0.2770179440904861 0.8161124558157763 0.02822821882449837  0.3696419566266507 0.8139170643377384 0.03005250209264556  0.4625309238415092 0.8127570766136497 0.03112889023228784  0.5556879626327834 0.8122158776219731 0.0317569116455229  0.649105243304785 0.8120219585240046 0.03211348170280084  0.7427590064961027 0.8120019339012956 0.0323199549978372  0.8366167451162024 0.8120426338557447 0.03246144495191889  0.9306410887114294 0.8120672883728927 0.03260436551387558  1.024795757853526 0.8120033844538483 0.0327961207497709  1.118999340290768 0.8117748358891368 0.033053281129047  0 0.9166666666666666 0  0.09377806896119198 0.9059088753910659 0.01867035266186472  0.1868023529679451 0.8987840990386029 0.02396847465259071  0.2792048565217568 0.8947978481703969 0.02724314831916528  0.3715214458464505 0.892544133074603 0.02931270253621404  0.4640126189826926 0.891301868067783 0.03060572401455541  0.5568076882818567 0.8906560962353417 0.03140888839693793  0.6499381479208733 0.8903520664510396 0.03189831790373854  0.7433850872525726 0.8902280847961515 0.0322033141498319  0.8371062814765622 0.8901762714410935 0.032418037867533  0.9310496075558674 0.8901199894761589 0.03261532649579256  1.025159765525061 0.889991367992464 0.03284752786602885  1.11934617561753 0.8897607410323868 0.03314543169573583  0 1 0  0.09812610627917465 0.9838814021472044 0.01947416628917365  0.1905578026168877 0.9775546481417852 0.02327028972412118  0.2819547891236285 0.9738053500577368 0.02685764568739263  0.373426771211804 0.9715324601749276 0.02904163221341428  0.465297132477921 0.9701492275030035 0.03042412693804848  0.5576553276804024 0.9693229024974753 0.03129559211860757  0.6504955509742542 0.9688391559076986 0.03183079989974504  0.7437649162565261 0.9685546973094286 0.03216759373671307  0.8373939938008343 0.968368868497406 0.03240499777433135  0.9313085770976492 0.9682076202502294 0.0326174704434922  1.025422726911586 0.9680131138269824 0.03285818690447154  1.119617924797914 0.9677678721855405 0.03316144039536712  0 0 0.08333333333333333  0.09393911756508083 0.01861946001251822 0.09517953530419536  0.1870517549065656 0.02376002287691739 0.1019741242323074  0.2794708125216976 0.0271760842742432 0.1058726353414828  0.3717642569304049 0.02929306412403954 0.1080863252377738  0.4642419656315366 0.03061114489852546 0.1093300184221458  0.5570379052538903 0.03141961706245239 0.1100037528122083  0.65017658987
[...]
<PointData  Vectors="f_32"> 
<DataArray  type="Float64"  Name="f_32"  NumberOfComponents="3" format="ascii">0.0000000000000000e+00 0.0000000000000000e+00 0.0000000000000000e+00  -1.7289243501404605e-02 -2.3209578201390038e-02 -2.3209578201390066e-02  -3.0343288500891893e-02 -3.2509415813571758e-02 -3.2509415813571897e-02  -4.1420598241959254e-02 -3.8285356904308503e-02 -3.8285356904308544e-02  -5.2564756801099399e-02 -4.1904305626368599e-02 -4.1904305626368606e-02  -6.4259535654075148e-02 -4.4147181244575770e-02 -4.4147181244575832e-02  -7.6619608694036292e-02 -4.5511298660088392e-02 -4.5511298660088330e-02  -8.9604561106031710e-02 -4.6322208055647303e-02 -4.6322208055647275e-02  -1.0311638731200705e-01 -4.6797387432071846e-02 -4.6797387432071659e-02  -1.1704583592001999e-01 -4.7082247059353245e-02 -4.7082247059352982e-02  -1.3128745693138974e-01 -4.7276689674246107e-02 -4.7276689674245850e-02  -1.4576904022869580e-01 -4.7440763808692027e-02 -4.7440763808691624e-02  -1.6038541476370538e-01 -4.7557893917220068e-02 -4.7557893917219672e-02  0.0000000000000000e+00 0.0000000000000000e+00 0.0000000000000000e+00  -1.2152416577711945e-02 -1.5719778538409453e-02 -2.5203284961480752e-02  -2.5682584611704449e-02 -2.6233743606270326e-02 -3.3538974575495553e-02  -3.8029249088663779e-02 -3.2262332635014157e-02 -3.8925601045160345e-02  -5.0220341532995989e-02 -3.5734822420773124e-02 -4.2304506340575448e-02  -6.2682880918862718e-02 -3.7686331597761580e-02 -4.4397124552894796e-02  -7.5580484538110448e-02 -3.8740065428664351e-02 -4.5666436486111246e-02  -8.8928706754807088e-02 -3.9271380601872685e-02 -4.6415816509667862e-02  -1.0267703937491937e-01 -3.9515438198235539e-02 -4.6850891475853633e-02  -1.1675392307366213e-01 -3.9619208801087866e-02 -4.7110291853523389e-02  -1.3108732228766498e-01 -3.9676330343881121e-02 -4.7290263062326567e-02  -1.4561915388713711e-01 -3.9733649051980929e-02 -4.7448749651704723e-02  -1.6025782320657012e-01 -3.9828407101416545e-02 -4.7571067764693539e-02  0.0000000000000000e+00 0.0000000000000000e+00 0.0000000000000000e+00  -1.0934640687658165e-02 -1.0764871476128450e-02 -2.6268732291325425e-02  -2.3108196518467593e-02 -1.9931031571788299e-02 -3.5140504753418837e-02  -3.5376044079960089e-02 -2.5692509105840592e-02 -4.0335436497428948e-02  -4.7999294900425739e-02 -2.9010443174557289e-02 -4.3372395766365125e-02  -6.0973778897459724e-02 -3.0777349703848936e-02 -4.5156981572442703e-02  -7.4321997310916321e-02 -3.1633870988093532e-02 -4.6187970535350467e-02  -8.8026046320421089e-02 -3.1981693368886080e-02 -4.6759755713463254e-02  -1.0203731261027185e-01 -3.2068691062784496e-02 -4.7066315476838018e-02  -1.1629847011142121e-01 -3.2044251350176280e-02 -4.7234880107634679e-02  -1.3075448074744578e-01 -3.1998866727959596e-02 -4.7352625265326742e-02  -1.4535781208599732e-01 -3.1983894221708414e-02 -4.7467191431480316e-02  -1.6003755230175556e-01 -3.2074122379299505e-02 -4.7564601653369565e-02  0.0000000000000000e+00 0.0000000000000000e+00 0.0000000000000000e+00  -1.0552977911588038e-02 -7.4269838512927315e-03 -2.6875825403378586e-02  -2.1830017600078140e-02 -1.4309227315900225e-02 -3.6386515089068289e-02  -3.3618572065763290e-02 -1.9050909278057252e-02 -4.1680115848755223e-02  -4.6241785036585194e-02 -2.1913623254973407e-02 -4.4543330752017884e-02  -5.9451060879454481e-02 -2.3442142859870480e-02 -4.6074702590700865e-02  -7.3101498438616241e-02 -2.4145839036997092e-02 -4.6861275903910003e-02  -8.7091639533049311e-02 -2.4385878170305526e-02 -4.7227066761714218e-02  -1.0133934576423052e-01 -2.4393232785190871e-02 -4.7371814047847981e-02  -1.1577921176014400e-01 -2.4307892692182358e-02 -4.7418118595042254e-02  -1.3036012878832529e-01 -2.4213881393073605e-02 -4.7445262316642346e-02  -1.4504130075160207e-01 -2.4166734556072007e-02 -4.7492123472221898e-02  -1.5977387643265001e-01 -2.4247722041491900e-02 -4.7551862301073305e-02  0.0000000000000000e+00 0.0000000000000000e+00 0.0000000000000000e+00  -1.0395494569190472e-02 -4.7905870605041458e-03 -2.7281222428455806e-02  -2.1192393184798427e-02 -9.3258105051205326e-03 -3.7228086492846091e-02  -3.2561988024028467e-02 -1.2620278709853478e-02 -4.2690063942893562e-02  -4.5032461720195989e-02 -1.4702647503860524e-02 -4.5501097450284307e-02  -5.8300203312755011e-02 -1.5839587926657121e-02 -4.6876054293666987e-02  -7.2116006112655340e-02 -1.6358274787346784e-02 -4.7478260770682700e-02  -8.6299585391391084e-02 -1.6519933878761935e-02 -4.7671457315652560e-02  -1.0072505753078312e-01 -1.6501055385068662e-02 -4.7670978546556060e-02  -1.1530805554363573e-01 -1.6411699246608704e-02 -4.7601866560258395e-02  -1.2999339974777610e-01 -1.6318438536326824e-02 -4.7539869773044190e-02  -1.4474435581810050e-01 -1.6270781116745726e-02 -4.7519811848210081e-02  -1.5953005415186755e-01 -1.6332609885833547e-02 -4.7544926851316970e-02  0.0000000000000000e+00 0.0000000000000000e+00 0.0000000000000000e+00  -1.0327908653226418e-02 -2.4835612831314133e-03 -2.7523040793870648e-02  -2.0887539214899928e-02 -4.7436529752060306e-03 -3.7714348820456975e-02  -3.2001849527419170e-02 -6.4182741022128179e-03 -4.3304378405693136e-02  -4.4333783296431846e-02 -7.5062362199545818e-03 -4.6112847729523981e-02  -5.7592540192980095e-02 -8.1104012025320360e-03 -4.7407770482646619e-02  -7.1481992623560156e-02 -8.3858541027469480e-03 -4.7900070812256175e-02  -8.5772616945832492e-02 -8.4670944097515119e-03 -4.7982563259280984e-02  -1.0030556203775209e-01 -8.4489823781969103e-03 -4.7884359169545268e-02  -1.1497945351029551e-01 -8.3924774860478363e-03 -4.7734874390312647e-02  -1.2973334198901251e-01 -8.3343244708510792e-03 -4.7609160443799557e-02  -1.4453282739114306e-01 -8.3062025335100334e-03 -4.7541487075007043e-02  -1.5935743764563773e-01 -8.3386174484462554e-03 -4.7542376054801785e-02  0.0000000000000000e+00 0.0000000000000000e+00 0.0000000000000000e+00  -1.0299415857789398e-02 -3.2661660054195222e-04 -2.7616815794851327e-02  -2.0784224875074957e-02 -3.5434488384221305e-04 -3.7885055701785346e-02  -3.1814830961255834e-02 -3.4978562566949177e-04 -4.3519995744395273e-02  -4.4094728686597660e-02 -3.4451420855596419e-04 -4.6330714273370328e-02  -5.7343992635776039e-02 -3.3769396283805876e-04 -4.7599505045469830e-02  -7.1254469105156454e-02 -3.2980908770132052e-04 -4.8053776044947982e-02  -8.5580084712209750e-02 -3.2171974943654796e-04 -4.8096948168742215e-02  -1.0014970369807166e-01 -3.1392999702454263e-04 -4.7963341486291652e-02  -1.1485531643459132e-01 -3.0735454044933668e-04 -4.7784270783911995e-02  -1.2963335291964190e-01 -3.0126628407551930e-04 -4.7634580348432369e-02  -1.4445122766839091e-01 -3.0152028041679661e-04 -4.7549362363957605e-02  -1.5929053400266036e-01 -2.9827067984518444e-04 -4.7540211098670487e-02  0.0000000000000000e+00 0.0000000000000000e+00 0.0000000000000000e+00  -1.0296066798557142e-02 1.8109728420637238e-03 -2.7567717902392923e-02  -2.0849293856210746e-02 4.0266601966344705e-03 -3.7752270297887511e-02  -3.1963869334303681e-02 5.7125727199174711e-03 -4.3339936765865478e-02  -4.4295287561958684e-02 6.8122447328123788e-03 -4.6143549906559667e-02  -5.7555973097093323e-02 7.4319985187086225e-03 -4.7431305596939977e-02  -7.1449658893304999e-02 7.7247896085710444e-03 -4.7917033562489379e-02  -8.5744850447829854e-02 7.8230433957302090e-03 -4.7994327121727430e-02  -1.0028134846738025e-01 7.8208334545314100e-03 -4.7891977633653625e-02  -1.1495772928799414e-01 7.7777812043423348e-03 -4.7739105850128770e-02  -1.2971278536604836e-01 7.7319385638690520e-03 -4.7609910524398884e-02  -1.4451563797596856e-01 7.7047969607085785e-03 -4.7540603220511346e-02  -1.5934175171324710e-01 7.7438432909473784e-03 -4.7536847464056078e-02  0.0000000000000000e+00 0.0000000000000000e+00 0.0000000000000000e+00  -1.0325733854666121e-02 4.0573087555312659e-03 -2.7371325516084646e-02  -2.1118446638761321e-02 8.5827398332373184e-03 -3.7304681775239143e-02  -3.2486155852797245e-02 1.1894305834833500e-02 -4.2762028894209617e-02  -4.4954822689345010e-02 1.3994240633677152e-02 -4.5561501294463361e-02  -5.8228051220213267e-02 1.5153691712553359e-02 -4.6921941780359112e-02  -7.2053857043950911e-02 1.5694196294503235e-02 -4.7511479648439957e-02  -8.6247041632434615e-02 1.5874863698902193e-02 -4.7694869380718700e-02  -1.0067948329433325e-01 1.5872405947356179e-02 -4.7686560224311732e-02  -1.1526705985132361e-01 1.5797138177407976e-02 -4.7610931175480181e-02  -1.2995429429948435e-01 1.5716433182261048e-02 -4.7542239955159507e-02  -1.4471119543807007e-01 1.5673972348373442e-02 -4.7518572907602835e-02  -1.5949938593058749e-01 1.5742628400598188e-02 -4.7534582016002871e-02  0.0000000000000000e+00 0.0000000000000000e+00 0.0000000000000000e+00  -1.0457272314265808e-02 6.6084471539400750e-03 -2.7003160157515874e-02  -2.1732089102395137e-02 1.3516574197698389e-02 -3.6507179647871590e-02  -3.3503656870811881e-02 1.8286280045390541e-02 -4.1788540309879378e-02  -4.6124762603530205e-02 2.1184924361687903e-02 -4.4630729286028709e-02  -5.9347690330018278e-02 2.2749386107150684e-02 -4.6140229110530000e-02  -7.3015747863257124e-02 2.3480790532389627e-02 -4.6909491578087360e-02  -8.7020342432921033e-02 2.3741250572389641e-02 -4.7262044078438474e-02  -1.0127748715732864e-01 2.3764661634071510e-02 -4.7396255641714742e-02  -1.1572297259764071e-01 2.3693702891182979e-02 -4.7433513753212059e-02  -1.3030583767778300e-01 2.3612038416845268e-02 -4.7451327549337854e-02  -1.4499426209811858e-01 2.3576525154912605e-02 -4.7491761405653733e-02  -1.5972933024147093e-01 2.3663954977259160e-02 -4.7538223826748084e-02  0.0000000000000000e+00 0.0000000000000000e+00 0.0000000000000000e+00  -1.0828088775100157e-02 9.7610629050974666e-03 -2.6418721703046353e-02  -2.2959248120496396e-02 1.9031712619630256e-02 -3.5305756320944570e-02  -3.5189711767629479e-02 2.4887531488904120e-02 -4.0485842110064618e-02  -4.7841545715319830e-02 2.8273579509738116e-02 -4.3482121131867314e-02  -6.0849335227054921e-02 3.0091383591425300e-02 -4.5237984126352784e-02  -7.4224277316628798e-02 3.0976534805145998e-02 -4.6248490801085881e-02  -8.7945302978568396e-02 3.1341951448615998e-02 -4.6805614651102723e-02  -1.0196630008665218e-01 3.1442184289796372e-02 -4.7100619726443853e-02  -1.1623272935602132e-01 3.1430681134128904e-02 -4.7258761724435071e-02  -1.3069048801332478e-01 3.1396272069739314e-02 -4.7365315734035011e-02  -1.4529902425213689e-01 3.1401236758098083e-02 -4.7469543650386185e-02  -1.5997959770071746e-01 3.1494758437631463e-02 -4.7550612544553512e-02  0.0000000000000000e+00 0.0000000000000000e+00 0.0000000000000000e+00  -1.2118635987601132e-02 1.4417725270330094e-02 -2.5160593320024204e-02  -2.5469106881071318e-02 2.5284422052965484e-02 -3.3768887252334935e-02  -3.7856729271672218e-02 3.1457657722211534e-02 -3.9063899397860168e-02  -5.0089367149884829e-02 3.5010809300906671e-02 -4.2411993692624744e-02  -6.2581555857700324e-02 3.7009653914561631e-02 -4.4477400777038337e-02  -7.5492920320806609e-02 3.8085563594695018e-02 -4.5733827764841639e-02  -8.8847712253560820e-02 3.8630946524634065e-02 -4.6474153472279761e-02  -1.0260026566928106e-01 3.8887156973641049e-02 -4.6900070496939124e-02  -1.1668048631952474e-01 3.9003934341586943e-02 -4.7148996603151444e-02  -1.3101712078212496e-01 3.9072292839847450e-02 -4.7315674007376310e-02  -1.4554871329113020e-01 3.9154840632357281e-02 -4.7458310356671508e-02  -1.6019322690982868e-01 3.9249027042553418e-02 -4.7565348920771175e-02  0.0000000000000000e+00 0.0000000000000000e+00 0.0000000000000000e+00  -1.6363613352375489e-02 2.1555873305165781e-02 -2.5553857168707776e-02  -3.0089999407942138e-02 3.1624478272080814e-02 -3.2868079164756453e-02  -4.1238077109564952e-02 3.7582381704587726e-02 -3.8504099834858370e-02  -5.2422899620841602e-02 4.1260535426518120e-02 -4.2036476656788863e-02  -6.4133658302174851e-02 4.3524405829461606e-02 -4.4230037728490039e-02  -7.6498579211209783e-02 4.4892165480171872e-02 -4.5582339068206128e-02  -8.9490455724319712e-02 4.5706205501087276e-02 -4.6385501360589533e-02  -1.0301184692041315e-01 4.6186399664847035e-02 -4.6852589422647500e-02  -1.1695275453295600e-01 4.6478870975161443e-02 -4.7127787711406875e-02  -1.3121046929585267e-01 4.6680558083922151e-02 -4.7308844082946583e-02  -1.4568694223072087e-01 4.6859441803358312e-02 -4.7455504427024155e-02  -1.6030941742836283e-01 4.6995511150390100e-02 -4.7573126592661823e-02  0.0000000000000000e+00 0.0000000000000000e+00 0.0000000000000000e+00  -1.2152416577711949e-02 -2.5203284961480707e-02 -1.5719778538409526e-02  -2.5682584611704456e-02 -3.3538974575495560e-02 -2.6233743606270385e-02  -3.8029249088663807e-02 -3.8925601045160282e-02 -3.2262332635014171e-02  -5.0220341532995989e-02 -4.2304506340575428e-02 -3.5734822420773242e-02  -6.2682880918862802e-02 -4.4397124552894809e-02 -3.7686331597761524e-02  -7.5580484538110601e-02 -4.5666436486111329e-02 -3.8740065428664275e-02  -8.8928706754807171e-02 -4.6415816509668063e-02 -3.9271380601872664e-02  -1.0267703937491954e-01 -4.6850891475853765e-02 -3.9515438198235379e-02  -1.1675392307366229e-01 -4.7110291853523674e-02 -3.9619208801087651e-02  -1.3108732228766504e-01 -4.7290263062326872e-02 -3.9676330343880871e-02  -1.4561915388713720e-01 -4.7448749651705084e-02 -3.9733649051980596e-02  -1.6025782320657020e-01 -4.7571067764693963e-02 -3.9828407101416143e-02  0.0000000000000000e+00 0.0000000000000000e+00 0.0000000000000000e+00  -6.4289251480223802e-03 -1.7230451069388423e-02 -1.7230451069388423e-02  -2.1075494699532536e-02 -2.6408749320141905e-02 -2.6408749320141943e-02  -3.4752053049042747e-02 -3.2368779009730085e-02 -3.2368779009730113e-02  -4.8001380061984761e-02 -3.5726729117616846e-02 -3.5726729117616873e-02  -6.1209995785078818e-02 -3.7649007357010635e-02 -3.7649007357010600e-02  -7.4624026027358320e-02 -3.8698709855088810e-02 -3.8698709855088782e-02  -8.8316584509639015e-02 -3.9235176435221460e-02 -3.9235176435221363e-02  -1.0228552670498929e-01 -3.9487097669377871e-02 -3.9487097669377628e-02  -1.1649706535862658e-01 -3.9599101465512342e-02 -3.9599101465512092e-02  -1.3091013459661202e-01 -3.9663340667247325e-02 -3.9663340667247006e-02  -1.4548319092119294e-01 -3.9730069074315574e-02 -3.9730069074315172e-02  -1.6014595886617208e-01 -3.9824207103982781e-02 -3.9824207103982302e-02  0.0000000000000000e+00 0.0000000000000000e+00 0.0000000000000000e+00  -5.2630977259924064e-03 -1.1391523806585932e-02 -1.8191363154746055e-02  -1.8569457354650383e-02 -1.9878858232270254e-02 -2.7604593298697952e-02  -3.2178198896643827e-02 -2.5417926910597126e-02 -3.3552380184913029e-02  -4.5862093912385361e-02 -2.8683449023093825e-02 -3.6599069042117446e-02  -5.9575529600830034e-02 -3.0493478786525575e-02 -3.8266248701468185e-02  -7.3429821840897525e-02 -3.1413543501227589e-02 -3.9116182548968023e-02  -8.7466224872355308e-02 -3.1822161883068315e-02 -3.9505590001771833e-02  -1.0168638707467276e-01 -3.1959989127919232e-02 -3.9652628473939390e-02  -1.1607189792541990e-01 -3.1975435867082264e-02 -3.9691682987229429e-02  -1.3059898087144400e-01 -3.1959783784475095e-02 -3.9707412964430519e-02  -1.4524058928437489e-01 -3.1968725476755715e-02 -3.9743884752487364e-02  -1.5994201877040040e-01 -3.2058800156202959e-02 -3.9822862941366048e-02  0.0000000000000000e+00 0.0000000000000000e+00 0.0000000000000000e+00  -4.7929857513930854e-03 -7.9080275384689602e-03 -1.8825399148682247e-02  -1.7058968405469402e-02 -1.4238541970442118e-02 -2.8778195495806069e-02  -3.0397325353258318e-02 -1.8694057878059896e-02 -3.4781354639146167e-02  -4.4158577856271274e-02 -2.1491786332458313e-02 -3.7665112239635562e-02  -5.8125603596267880e-02 -2.3061249265775144e-02 -3.9105437299397021e-02  -7.2279689104899264e-02 -2.3843976455254118e-02 -3.9730814135822204e-02  -8.6592072657724964e-02 -2.4164504938646875e-02 -3.9930176721276085e-02  -1.0103647889893996e-01 -2.4241197489866233e-02 -3.9928142505014724e-02  -1.1558906115212174e-01 -2.4211056183041549e-02 -3.9855369170169901e-02  -1.3023089918048636e-01 -2.4158906078968839e-02 -3.9790273795763151e-02  -1.4494455887341448e-01 -2.4142934639914678e-02 -3.9772806321942807e-02  -1.5969944911488962e-01 -2.4230247843686683e-02 -3.9825319463572963e-02  0.0000000000000000e+00 0.0000000000000000e+00 0.0000000000000000e+00  -4.5440304289547286e-03 -5.1066881127661660e-03 -1.9250872467694413e-02  -1.6283810677498126e-02 -9.2556549532904157e-03 -2.9600901228215740e-02  -2.9306962435894049e-02 -1.2335167328218511e-02 -3.5739257559513279e-02  -4.2981475973544285e-02 -1.4353520016502050e-02 -3.8575317415985452e-02  -5.7032885920436795e-02 -1.5510492040682574e-02 -3.9866848127737914e-02  -7.1355476537705964e-02 -1.6089399325158928e-02 -4.0316096634110024e-02  -8.5854679358822919e-02 -1.6318462716194842e-02 -4.0350469335244138e-02  -1.0046693490098846e-01 -1.6360434417317316e-02 -4.0209841576577005e-02  -1.1515237319577926e-01 -1.6320824602827414e-02 -4.0027727115024642e-02  -1.2988906825879842e-01 -1.6266189444552961e-02 -3.9880431598666680e-02  -1.4466570733885845e-01 -1.6246128689202350e-02 -3.9807360222480805e-02  -1.5947285459010485e-01 -1.6316445595573523e-02 -3.9834921332413134e-02  0.0000000000000000e+00 0.0000000000000000e+00 0.0000000000000000e+00  -4.4225622166043036e-03 -2.6608885899220449e-03 -1.9500620583098156e-02  -1.5891686755669661e-02 -4.7021116994532472e-03 -3.0082176526440310e-02  -2.8707479961988327e-02 -6.2637660362674426e-03 -3.6333409468152007e-02  -4.2292953757866271e-02 -7.3139759473855670e-03 -3.9164566965737273e-02  -5.6360127774313394e-02 -7.9237036128469614e-03 -4.0377948422983694e-02  -7.0762463642082829e-02 -8.2295222495129723e-03 -4.0720961964479545e-02  -8.5365825620712737e-02 -8.3475112803645824e-03 -4.0648420009829211e-02  -1.0007935925468821e-01 -8.3640358606171528e-03 -4.0413571257554494e-02  -1.1484871329373646e-01 -8.3365521800463777e-03 -4.0154512459425772e-02  -1.2964720021419135e-01 -8.3016650798657197e-03 -3.9947879287986279e-02  -1.4446665601731015e-01 -8.2890813952773389e-03 -3.9834468056723485e-02  -1.5931121508532201e-01 -8.3287227135971729e-03 -3.9844476850221806e-02  0.0000000000000000e+00 0.0000000000000000e+00 0.0000000000000000e+00  -4.3773404356675693e-03 -3.7363926915235496e-04 -1.9593657669493284e-02  -1.5755653849767470e-02 -3.4591482686149551e-04 -3.0248820102854033e-02  -2.8501888673685874e-02 -3.4517990427141332e-04 -3.6541714292038716e-02  -4.2053742662041101e-02 -3.4155241719428629e-04 -3.9373991856279836e-02  -5.6122567407924089e-02 -3.3257977835274608e-04 -4.0561838321774568e-02  -7.0549596399882841e-02 -3.2368947386712013e-04 -4.0868147465201773e-02  -8.5187586755447867e-02 -3.1537098843839118e-04 -4.0757719146081908e-02  -9.9935857441774689e-02 -3.0813114236934831e-04 -4.0488843988835198e-02  -1.1473453970767705e-01 -3.0236856397234020e-04 -4.0201504499979140e-02  -1.2955492625317361e-01 -2.9784686014845468e-04 -3.9972608262685089e-02  -1.4439013069227877e-01 -2.9738114169170334e-04 -3.9843940349460448e-02  -1.5924858742819981e-01 -2.9790693484077821e-04 -3.9846883674168970e-02  0.0000000000000000e+00 0.0000000000000000e+00 0.0000000000000000e+00  -4.3947688918285341e-03 1.8918476129819214e-03 -1.9535588064099305e-02  -1.5842469750545374e-02 4.0042163483931872e-03 -3.0110353207918789e-02  -2.8657542134965575e-02 5.5691887028538820e-03 -3.6362523576271490e-02  -4.2248394213467211e-02 6.6291858936143155e-03 -3.9189746245173872e-02  -5.6322985710953254e-02 7.2585785213563512e-03 -4.0396902071271126e-02  -7.0732016691580024e-02 7.5827846930895211e-03 -4.0734322740058101e-02  -8.5340692953102051e-02 7.7173236459239210e-03 -4.0657492903622527e-02  -1.0005803843442011e-01 7.7480531211264374e-03 -4.0419315252419888e-02  -1.1483001348413738e-01 7.7320109959365564e-03 -4.0157426099922705e-02  -1.2963023309772215e-01 7.7062565231073143e-03 -3.9947960193720010e-02  -1.4445167993387029e-01 7.6955809118711789e-03 -3.9832250185166847e-02  -1.5929736352068594e-01 7.7350609143565681e-03 -3.9839412518634446e-02  0.0000000000000000e+00 0.0000000000000000e+00 0.0000000000000000e+00  -4.4829622587670643e-03 4.27013582787792