<?xml version="1.0"?>
<VTKFile type="UnstructuredGrid"  version="0.1"  >
<UnstructuredGrid>
<Piece  NumberOfPoints="649" NumberOfCells="2627">
<Points>
<DataArray  type="Float64"  NumberOfComponents="3"  format="ascii">0.5629153226521766 0.03262853925496974 0.0326285392549699  0.6572497480664379 0.03309249989993938 0.03309249989993937  0.6567770281034422 0.1112758714045895 0.03313673440885135  0.6563498204789133 0.1112495578785615 0.1112495578785615  0.6567770281034424 0.0331367344088512 0.1112758714045896  0.5621824205600908 0.03270781411645132 0.1109886021078838  0.5621824205600909 0.1109886021078839 0.03270781411645125  0.5615078766384246 0.1109534222131577 0.1109534222131577  0.7520230000046308 0.03335518789901706 0.03335518789901699  0.7517125701306067 0.1113960184482247 0.03337703009947  0.7514363594760209 0.1113781121801575 0.1113781121801575  0.7517125701306063 0.03337703009946991 0.111396018448225  0.8471386476553286 0.03351215773240617 0.03351215773240617  0.8469194584512226 0.1114430185619187 0.03351941023775058  0.8467271478236708 0.1114324406896091 0.111432440689609  0.8469194584512229 0.03351941023775042 0.1114430185619188  0.9425019853019997 0.03362827831073583 0.03362827831073598  0.9423326839434447 0.1114784092746617 0.03362727733753846  0.9421819822741718 0.111473862289934 0.1114738622899341  0.9423326839434445 0.0336272773375384 0.1114784092746618  1.038055504848079 0.03374775294444533 0.03374775294444533  1.037903288340095 0.1115393510234046 0.03374548430026978  1.037763252351384 0.1115415921236505 0.1115415921236504  1.037903288340095 0.03374548430026964 0.1115393510234046  1.133688948336613 0.03387812157511075 0.03387812157511023  1.133546996184513 0.1116590242038866 0.03387757467474648  1.133413338331503 0.1116583781290449 0.1116583781290448  1.133546996184513 0.03387757467474626 0.111659024203887  0.6560877163368448 0.1893327660753312 0.03332241008765442  0.6557071282546467 0.1892375469306009 0.1113964830502678  0.5612141864954348 0.1891629789645 0.03301406618157084  0.5605985685595005 0.1890204153347418 0.1112020093362051  0.7512213342026806 0.1893549250882472 0.03348006886308191  0.7509808569345261 0.189296557559381 0.1114572348987671  0.8465594686732657 0.1893233910892719 0.03356589574627001  0.8463946081524086 0.189293229185099 0.1114666384597717  0.9420533354043573 0.1892963730847664 0.03363483295428179  0.941923619271394 0.189287689854779 0.1114782896376445  1.03766471840518 0.1893101431990132 0.03372406914835965  1.037544994939303 0.1893197324287825 0.1115253998091154  1.133329232826092 0.189427257844515 0.0338354406014444  1.133214884172614 0.1894342749552788 0.1116269519633814  0.6553479943781275 0.2672142994998868 0.03358786709369006  0.6550228802501858 0.267085129774252 0.1116440266023996  0.5602385308525432 0.2671089327033647 0.03343231385634191  0.5596906713247241 0.2669175595489532 0.1115943952371196  0.7506685084344091 0.267189646721562 0.03363425315268528  0.7504716531554735 0.2671100453490108 0.1115999750379358  0.8461401951132635 0.2671223326811897 0.03363993810838953  0.8460096193815263 0.2670810866832403 0.1115350893621656  0.9417201695982507 0.2670642768006841 0.03364934293233814  0.9416182275362766 0.2670531450573058 0.111493217858683  1.037374591196959 0.2670548566256045 0.03368802058892891  1.037282338230379 0.2670675490285962 0.1114999099652346  1.133063705998802 0.2671634989230054 0.03375879387489814  1.132979143808301 0.2671784869236311 0.1115709780398088  0.6547103366036073 0.3449372771118104 0.03384683179960193  0.6544360837155938 0.3448204275231401 0.111895351739282  0.5594348712750488 0.3448701877770547 0.03382739359846366  0.5589463761014041 0.34469973977865 0.1119790188356595  0.7501753276633767 0.3449042117472071 0.03378893982478422  0.7500195606637811 0.3448314169762351 0.1117497316011426  0.845756050329179 0.3448392145024718 0.03371643004542418  0.8456584017119486 0.3448011375731692 0.1116097219584452  0.9414075920639108 0.3447825602306731 0.03366489498545688  0.941333120743448 0.3447724519063358 0.1115114747032408  1.037099377381653 0.3447700479639784 0.03365081031252202  1.037034197670097 0.3447807371375258 0.1114749397922501  1.132812104050555 0.3448556903275636 0.03367950076091129  1.132758334583672 0.3448721766020449 0.1115151347592261  0.6542847091293181 0.4225476587303305 0.034029398196076  0.6540455018123673 0.4224803741037532 0.1120750093362368  0.5589145435436044 0.4225128300671144 0.03410045633256576  0.558465488088813 0.4224158512802432 0.1122482689913271  0.749838177887324 0.4225285973692577 0.03389969295434179  0.7497112937032439 0.4224863181056888 0.1118587118140615  0.8454881655704876 0.4224927274722418 0.03377180983407618  0.8454139602234312 0.422470371700096 0.1116649320667872  0.9411856128864267 0.4224616318181844 0.03367592288499893  0.9411311563609661 0.422455803547688 0.1115254308078204  1.036902768134345 0.4224588330194496 0.03362358278156712  1.036856957024227 0.4224638284606222 0.1114572351837006  1.132632151852376 0.4225073635515001 0.03362173527923072  1.132600808832061 0.4225191504894728 0.1114750958018124  0.6541349449675494 0.500102114323873 0.0340928044310853  0.6539077619268265 0.5001041707318893 0.1121374218564135  0.5587340027855521 0.5001004976226581 0.03419512258448778  0.5582981661535922 0.5001036444226943 0.1123416546905768  0.7497175491834126 0.5001065947024264 0.03393802067878897  0.7496007146007336 0.5001078120682791 0.1118964972245893  0.8453904992409804 0.5001129725344728 0.03379059767134279  0.8453244708740261 0.5001133952192517 0.1116837804443436  0.9411026250640839 0.5001196704752567 0.033678710847566  0.9410555126391635 0.5001200378087707 0.1115296005304218  1.03682897289201 0.5001317811937653 0.03361323314447492  1.036789916803599 0.5001294884481494 0.1114503954596459  1.132563503164658 0.5001347686337067 0.03360033408833108  1.132540778261251 0.5001381135486679 0.1114602940183406  0.6542817390962147 0.5776585507118572 0.03402321134724848  0.65404129775997 0.5777292026396962 0.1120681473453486  0.5589105866449164 0.5776897249771227 0.03409353985339918  0.5584600620747503 0.5777921051674653 0.1122403417190662  0.7498336633179263 0.5776865382114131 0.03389467245031324  0.7497058632911953 0.5777306952726685 0.1118533766734568  0.8454815524837458 0.5777347156344586 0.03376786532031811  0.845406457179412 0.5777575833533718 0.1116609186489008  0.9411755332566606 0.5777786912529436 0.03367233115049782  0.9411212541869495 0.5777849684786605 0.111522405713895  1.036893333993843 0.5778037524565298 0.03362219707559138  1.036846810453223 0.5777946128582435 0.1114557200275685  1.132620127675012 0.5777616870298011 0.03362042318940453  1.13259025707072 0.5777556688547285 0.1114738569224651  0.6547042783068424 0.6552750999473783 0.03383549408199628  0.6544278566105488 0.6553932653354038 0.1118831754998938  0.5594287246415757 0.6553374771887244 0.03381382989963377  0.5589375537720112 0.655510642581928 0.1119641816722249  0.7501655601533893 0.6553167010474964 0.03378011474884198  0.7500082360945379 0.65538984463533 0.1117405665377638  0.8457419519456558 0.6553926089608487 0.03370971771973626  0.8456427834671651 0.655430222187906 0.1116029924499254  0.9413867985831145 0.6554606367668981 0.03365885017497701  0.9413128343198156 0.6554703053078771 0.1115064467814954  1.0370794009284 0.6554898373540123 0.03364843556008477  1.037013235069374 0.6554762467987367 0.1114723653556502  1.13278753256966 0.6554120276640433 0.03367717032761913  1.132736456263585 0.6553986833278818 0.1115128435247996  0.6553375522189249 0.7330083621525429 0.03357401236202549  0.6550101429134525 0.7331355638425264 0.1116299105226512  0.5602313377122857 0.7331090125665177 0.03341421517672549  0.5596806376856692 0.7332985300124225 0.1115758545771015  0.7506512127941365 0.7330401028166817 0.03362429303280209  0.7504529291581979 0.73311779715067 0.1115899968870684  0.8461163670968341 0.7331156722940086 0.03363283931585772  0.8459844570944468 0.7331553361411112 0.1115281613803739  0.9416875292174902 0.7331830093870856 0.03364316748369789  0.9415866506254157 0.7331928567746284 0.1114882279440476  1.037342430557993 0.7332011699724064 0.03368550466350804  1.037249176237951 0.7331877913190441 0.1114971752442501  1.133025837563806 0.7331028571296874 0.03375609875941395  1.132944378252403 0.7330871154458621 0.1115680831095916  0.656069420526752 0.8109016982639855 0.03331043880012082  0.6556873280683345 0.8109936156207094 0.1113859978578575  0.5612052063549927 0.8110680613103685 0.03299589717404138  0.5605886277894087 0.8112065676708091 0.1111857724331764  0.7511930153752636 0.810884235758863 0.03347253832195275  0.7509518397529663 0.8109397813531367 0.1114506939025389  0.8465234228458903 0.810921161130446 0.03356135719430868  0.8463577262536253 0.8109493086083057 0.1114627033354596  0.9420086861191957 0.810957046751587 0.03363175643684533  0.9418800066948716 0.8109627490581284 0.1114757894088197  1.037617390977296 0.8109441094905572 0.03372264680600229  1.037498165919899 0.8109345341962237 0.1115236125726868  1.133276645138364 0.8108389664722048 0.03383288921353124  1.133165203092458 0.8108262488535993 0.1116242324188302  0.656744559490292 0.8889723750329347 0.03313531767828143  0.6563153088241492 0.8889905058874581 0.1112475940032165  0.5621658395997059 0.8892618819361566 0.03270132557764976  0.5614889900967147 0.8892847280677181 0.1109477565083928  0.7516679925594389 0.8888524726050253 0.03337835853272812  0.7513905712308624 0.8888647859190234 0.1113785093116659  0.8468669192089641 0.8888072657477794 0.03352247670315193  0.8466738261339544 0.888814592660223 0.1114343661509035  0.9422736573856466 0.8887782925329254 0.03363101376940596  0.9421226536256817 0.8887792281221749 0.1114766376426507  1.037839859729076 0.8887141947217647 0.0337468498889503  1.03770116979067 0.8887123714340772 0.1115440015189153  1.13348428516849 0.8886065979107401 0.03387849250459486  1.133351557698944 0.888602708178166 0.1116617139481843  0.6571793415696346 0.967144949118565 0.03309298579
[...]
<PointData  Vectors="f_34"> 
<DataArray  type="Float64"  Name="f_34"  NumberOfComponents="3" format="ascii">-7.2592740418413848e-02 -3.7953376141972590e-02 -3.7953376141972632e-02  -8.5154061251740798e-02 -3.8522974119925238e-02 -3.8522974119925169e-02  -8.4556960854241858e-02 -3.2552139837466354e-02 -3.8579872206718935e-02  -8.4019080170975077e-02 -3.2518839655887907e-02 -3.2518839655887907e-02  -8.4556960854241886e-02 -3.8579872206719018e-02 -3.2552139837466278e-02  -7.1680279707104375e-02 -3.8053814056309782e-02 -3.2190839120544282e-02  -7.1680279707104486e-02 -3.2190839120544268e-02 -3.8053814056309705e-02  -7.0843479037133478e-02 -3.2147301184702513e-02 -3.2147301184702333e-02  -9.8220289133843577e-02 -3.8851720837337678e-02 -3.8851720837337692e-02  -9.7823229005710569e-02 -3.2710757986912010e-02 -3.8880681132108033e-02  -9.7471019703573941e-02 -3.2687556256040147e-02 -3.2687556256040057e-02  -9.7823229005710527e-02 -3.8880681132108283e-02 -3.2710757986911837e-02  -1.1168444469030794e-01 -3.9051118122174697e-02 -3.9051118122174613e-02  -1.1140281170936690e-01 -3.2777470995881054e-02 -3.9061711325698710e-02  -1.1115669602384332e-01 -3.2763266094188018e-02 -3.2763266094187678e-02  -1.1140281170936699e-01 -3.9061711325698939e-02 -3.2777470995880804e-02  -1.2543962765022551e-01 -3.9197209217973546e-02 -3.9197209217973331e-02  -1.2522299531186321e-01 -3.2824653578557447e-02 -3.9196925009346399e-02  -1.2503145185887987e-01 -3.2818296983432707e-02 -3.2818296983432457e-02  -1.2522299531186296e-01 -3.9196925009346774e-02 -3.2824653578557100e-02  -1.3942228759143563e-01 -3.9341879138088759e-02 -3.9341879138088620e-02  -1.3922701377757757e-01 -3.2897976489199891e-02 -3.9338741326359172e-02  -1.3905078693538866e-01 -3.2899805715594498e-02 -3.2899805715594060e-02  -1.3922701377757762e-01 -3.9338741326359582e-02 -3.2897976489199295e-02  -1.5350176028905205e-01 -3.9500517395107022e-02 -3.9500517395107113e-02  -1.5331862525142487e-01 -3.3040884314133004e-02 -3.9495976469812746e-02  -1.5315050253607640e-01 -3.3037880891785193e-02 -3.3037880891784763e-02  -1.5331862525142481e-01 -3.9495976469813440e-02 -3.3040884314132192e-02  -8.3705031171857264e-02 -2.6422801867704120e-02 -3.8815979084205782e-02  -8.3229583609110702e-02 -2.6301989043528411e-02 -3.2705217275850872e-02  -7.0496538676383544e-02 -2.6199242034820391e-02 -3.8438347200813121e-02  -6.9738310674895707e-02 -2.6021314253304815e-02 -3.2459103196735589e-02  -9.7210564804897162e-02 -2.6464921311745493e-02 -3.9014380252320215e-02  -9.6906708398379171e-02 -2.6389157862386461e-02 -3.2789663569643322e-02  -1.1095171666939366e-01 -2.6437260017627345e-02 -3.9124882561546309e-02  -1.1074304014091339e-01 -2.6396469629640467e-02 -3.2809453158311262e-02  -1.2487313610542654e-01 -2.6409575755483267e-02 -3.9210981146077482e-02  -1.2471104005501765e-01 -2.6395886644507392e-02 -3.2827153003028541e-02  -1.3893034624457956e-01 -2.6427275202291354e-02 -3.9315378225909019e-02  -1.3878337865762144e-01 -2.6435993542411974e-02 -3.2882077161318184e-02  -1.5304984900600443e-01 -2.6564298584068374e-02 -3.9442593901521897e-02  -1.5291120918401319e-01 -2.6569601962007916e-02 -3.2997923296888040e-02  -8.2799456128294549e-02 -2.0076778142302278e-02 -3.9152453690887913e-02  -8.2397635307490016e-02 -1.9913286655492270e-02 -3.3018742728560577e-02  -6.9314970638092221e-02 -1.9930122012871240e-02 -3.8962111835075232e-02  -6.8646059057389797e-02 -1.9691715158523734e-02 -3.2950445707186408e-02  -9.6527977731543618e-02 -2.0062428394443395e-02 -3.9213495285353929e-02  -9.6282648568113541e-02 -1.9959448309779158e-02 -3.2973489892055168e-02  -1.1043191250613753e-01 -1.9991508007749344e-02 -3.9224499668389978e-02  -1.1026954318651679e-01 -1.9935912375212014e-02 -3.2901114657141732e-02  -1.2446155846846536e-01 -1.9927033965433587e-02 -3.9236520588821530e-02  -1.2433724153502310e-01 -1.9908885140371410e-02 -3.2852348191385897e-02  -1.3857734003451927e-01 -1.9917771664571576e-02 -3.9278427942955690e-02  -1.3846751079553390e-01 -1.9928348251983682e-02 -3.2857031534443894e-02  -1.5273321442151294e-01 -2.0042861660578726e-02 -3.9354847476401576e-02  -1.5263513213589086e-01 -2.0056175233863612e-02 -3.2933973911300464e-02  -8.2023338543260049e-02 -1.3537315992787008e-02 -3.9480011099342183e-02  -8.1688580876232181e-02 -1.3389662980670932e-02 -3.3336462998473572e-02  -6.8347731757120486e-02 -1.3440548882899287e-02 -3.9455777031756727e-02  -6.7756300817404455e-02 -1.3228570172326915e-02 -3.3431183279347187e-02  -9.5922547711235137e-02 -1.3509835867985867e-02 -3.9412794194945880e-02  -9.5731973362474132e-02 -1.3415871469900210e-02 -3.3166034056972139e-02  -1.0995873633788295e-01 -1.3439759308253888e-02 -3.9327134239742330e-02  -1.0984045134715223e-01 -1.3388558048218764e-02 -3.3000817874902277e-02  -1.2407879751417636e-01 -1.3376351481515513e-02 -3.9263964849254776e-02  -1.2399120622472547e-01 -1.3359589898518929e-02 -3.2882514331479838e-02  -1.3824646393479442e-01 -1.3363076935230568e-02 -3.9241670389002510e-02  -1.3817207754950075e-01 -1.3371265928464424e-02 -3.2834251260318803e-02  -1.5243836408597139e-01 -1.3460887873671935e-02 -3.9267466523884423e-02  -1.5237936527724880e-01 -1.3475542570504220e-02 -3.2873161738123047e-02  -8.1507139082501470e-02 -6.8616970226601974e-03 -3.9710639365165487e-02  -8.1218441206268421e-02 -6.7767881974933027e-03 -3.3563314552511103e-02  -6.7723880566491951e-02 -6.8114980340528474e-03 -3.9796496485653199e-02  -6.7183593338614622e-02 -6.6909898200652245e-03 -3.3767395294686607e-02  -9.5510162804756021e-02 -6.8451118283002783e-03 -3.9555303541545593e-02  -9.5357925955603981e-02 -6.7906670540718401e-03 -3.3306028692348617e-02  -1.0963017679464281e-01 -6.8060980214379955e-03 -3.9401380925444075e-02  -1.0954314958881234e-01 -6.7761696254686268e-03 -3.3074505251450101e-02  -1.2380854855318953e-01 -6.7712467777267206e-03 -3.9283768676738572e-02  -1.2374746473931612e-01 -6.7615106489864428e-03 -3.2905505764220057e-02  -1.3801174615982187e-01 -6.7684652300931021e-03 -3.9215197411231341e-02  -1.3796231342020088e-01 -6.7716786273973369e-03 -3.2818712529551410e-02  -1.5222918509467701e-01 -6.8235827403036655e-03 -3.9204835632046443e-02  -1.5219788217429786e-01 -6.8343353831941895e-03 -3.2830484041407260e-02  -8.1325685810114512e-02 -1.1883845089815864e-04 -3.9790718007878208e-02  -8.1052919387484962e-02 -1.2153960057904189e-04 -3.3642089435712390e-02  -6.7507406463399436e-02 -1.1851266901810726e-04 -3.9914703861311046e-02  -6.6984390058775864e-02 -1.2240700329798777e-04 -3.3884127777458348e-02  -9.5362960228468283e-02 -1.2283806158203434e-04 -3.9604541728611949e-02  -9.5224139753743678e-02 -1.2459894299382662e-04 -3.3354491702041099e-02  -1.0951087603556270e-01 -1.2938231130752535e-04 -3.9426526247626444e-02  -1.0943483187595526e-01 -1.3022972351671045e-04 -3.3099573131357925e-02  -1.2370816631794385e-01 -1.3679992630149699e-04 -3.9289306935108952e-02  -1.2365680572911297e-01 -1.3741644091904849e-04 -3.2912518364497524e-02  -1.3792432742515010e-01 -1.5030808787295168e-04 -3.9204776169808470e-02  -1.3788344502741698e-01 -1.4776013890038992e-04 -3.2812278509624801e-02  -1.5215027271798015e-01 -1.5361226945372050e-04 -3.9181714070060235e-02  -1.5212910636915594e-01 -1.5733147087934824e-04 -3.2814498847992014e-02  -8.1503156504894730e-02 6.6219320920013584e-03 -3.9702864283446597e-02  -8.1213345234441278e-02 6.5324925015516119e-03 -3.3554672635688267e-02  -6.7717827778655426e-02 6.5729299634888563e-03 -3.9788402944836453e-02  -6.7176254000780200e-02 6.4456445918735098e-03 -3.3758093595430201e-02  -9.5504974325016298e-02 6.5972711224632895e-03 -3.9548633795634766e-02  -9.5351876318074777e-02 6.5399757097796777e-03 -3.3298958193186103e-02  -1.0962291691613410e-01 6.5456171626493307e-03 -3.9395900757818715e-02  -1.0953504013406160e-01 6.5144113810689571e-03 -3.3068843913060725e-02  -1.2379764233796903e-01 6.4965150844836549e-03 -3.9278697980833381e-02  -1.2373689080988723e-01 6.4858840581529329e-03 -3.2900895541403290e-02  -1.3800195447703018e-01 6.4687775767211103e-03 -3.9212486304727581e-02  -1.3795128021557423e-01 6.4766455814129860e-03 -3.2815697496564281e-02  -1.5221720386243637e-01 6.5168142562443670e-03 -3.9203131478168139e-02  -1.5218641926114701e-01 6.5211290248837128e-03 -3.2828044673615532e-02  -8.2015480909293600e-02 1.3290850331617697e-02 -3.9465526283082940e-02  -8.1678854078897856e-02 1.3141052288248743e-02 -3.3320931015929610e-02  -6.8338234071565945e-02 1.3196940682692141e-02 -3.9439526543077835e-02  -6.7744482021628485e-02 1.2981186956125252e-02 -3.3413542327537495e-02  -9.5911412810155416e-02 1.3255495396515753e-02 -3.9400830902463255e-02  -9.5719450180617546e-02 1.3160517705004380e-02 -3.3153653740699889e-02  -1.0994317334610074e-01 1.3174145488844498e-02 -3.9317573085447449e-02  -1.0982347919567029e-01 1.3122922553692323e-02 -3.2991087759472924e-02  -1.2405619043263197e-01 1.3098203752072818e-02 -3.9255222653104369e-02  -1.2396939156177639e-01 1.3081622734929070e-02 -3.2874608284690111e-02  -1.3822560025728092e-01 1.3065981908046378e-02 -3.9236929324259172e-02  -1.3814921852276840e-01 1.3077501852788668e-02 -3.2828963853732004e-02  -1.5241368310633790e-01 1.3155330667780312e-02 -3.9264534887598984e-02  -1.5235556416150733e-01 1.3166279367213348e-02 -3.2868691809288413e-02  -8.2786673366770216e-02 1.9818928188559813e-02 -3.9134091124661485e-02  -8.2383134667571287e-02 1.9657209078576123e-02 -3.3000184668152480e-02  -6.9304060861420935e-02 1.9675468553727586e-02 -3.8939826290428678e-02  -6.8633319455914193e-02 1.9438771517744511e-02 -3.2927801375376341e-02  -9.6508237593613794e-02 1.9797990062451632e-02 -3.9199349729746522e-02  -9.6261982712553817e-02 1.9696772455710509e-02 -3.2959350664029385e-02  -1.1040521087037890e-01 1.9718720975118259e-02 -3.9213688785334329e-02  -1.1024186084362424e-01 1.9664555051370047e-02 -3.2890387857851998e-02  -1.2442555086003536e-01 1.9644382177756031e-02 -3.9226893403144947e-02  -1.2430281306792972e-01 1.9627291758468560e-02 -3.2843746931151808e-02  -1.3854318338328531e-01 1.9624756441473167e-02 -3.9272941566281756e-02  -1.3843122700825478e-01 1.9636133527487134e-02 -3.2850855672810528e-02  -1.5269458348846526e-01 1.9738512053490226e-02 -3.9351633710479623e-02  -1.5259742853830732e-01 1.9752122529590552e-02 -3.2928291292059902e-02  -8.3683344030916540e-02 2.6151526182716912e-02 -3.8798868149019339e-02  -8.3207572986434386e-02 2.6033903632012741e-02 -3.2690317047432409e-02  -7.0484909994494957e-02 2.5930551826030924e-02 -3.8414430995359822e-02  -6.9727885611291132e-02 2.5756731994223236e-02 -3.2437977256595737e-02  -9.7177873982482468e-02 2.6189545381846493e-02 -3.9002259563740149e-02  -9.6874409043960177e-02 2.6116592521214031e-02 -3.2778910226869060e-02  -1.1091036717503269e-01 2.6156832527048920e-02 -3.9116357983900743e-02  -1.1070157924239493e-01 2.6118000212309075e-02 -3.2801699820042343e-02  -1.2482258436758721e-01 2.6120152254328850e-02 -3.9204313769421857e-02  -1.2466216289840595e-01 2.6109315105306743e-02 -3.2821001657899709e-02  -1.3887893513996732e-01 2.6136609756016019e-02 -3.9311029422520093e-02  -1.3873117348504149e-01 2.6144737424157839e-02 -3.2876599427623873e-02  -1.5299441014697904e-01 2.6259344483921171e-02 -3.9439936165734393e-02  -1.5285675970954538e-01 2.6270381358826745e-02 -3.2991727430604842e-02  -8.4519045054129327e-02 3.2264234004332544e-02 -3.8574465486170662e-02  -8.3980741438023268e-02 3.2240333463496744e-02 -3.2513256947269767e-02  -7.1661129598508677e-02 3.1898810058503937e-02 -3.8042672585706337e-02  -7.0824819295377539e-02 3.1869665996132467e-02 -3.2137543903448078e-02  -9.7770788719158452e-02 3.2423947690268212e-02 -3.8878562486605359e-02  -9.7418820290723296e-02 3.2407130531214544e-02 -3.2684459263250795e-02  -1.1134093569909029e-01 3.2490135956532822e-02 -3.9061755045352184e-02  -1.1109503408501296e-01 3.2479455414420995e-02 -3.2762063328363969e-02  -1.2515293007800374e-01 3.2531746636009280e-02 -3.9197852007566612e-02  -1.2496236047341742e-01 3.2528779551331578e-02 -3.2818163983853892e-02  -1.3915215137072912e-01 3.2610026925829629e-02 -3.9337088564227664e-02  -1.3897881847399596e-01 3.2609688382854857e-02 -3.2899084869365602e-02  -1.5324499462398894e-01 3.2735355256278666e-02 -3.9494166500261378e-02  -1.5307920250809334e-01 3.2737276706012952e-02 -3.3037021590716281e-02  -8.5070193352410520e-02 3.8248769241412947e-02 -3.8519019350944740e-02  -8.4511341506822185e-02 3.8295411852811490e-02 -3.2554883325813168e-02  -7.2525819022207380e-02 3.7683543405706878e-02 -3.7948443709136748e-02  -7.1662925866999461e-02 3.7765142354245995e-02 -3.2190731166214827e-02  -9.8126788719857819e-02 3.8573551842834390e-02 -3.8849025135899995e-02  -9.7760982108787225e-02 3.8596430983408939e-02 -3.2713790483585671e-02  -1.1158485409295557e-01 3.8768369213458942e-02 -3.9049510664473250e-02  -1.1132915970796642e-01 3.8775984611438191e-02 -3.2781363208588432e-02  -1.2534317922326160e-01 3.8908218946648102e-02 -3.9196599210091249e-02  -1.2514362492017361e-01 3.8906935792551146e-02 -3.2828065057623319e-02  -1.3931876301094717e-01 3.9049601665044710e-02 -3.9339342632932456e-02  -1.3913732339291657e-01 3.9042945796414819e-02 -3.2902100922099699e-02  -1.5339934382295706e-01 3.9191842121283946e-02 -3.9496585341341768e-02  -1.5323172143254421e-01 3.9192324234739284e-02 -3.3037723918652548e-02  -8.3229583609110841e-02 -3.2705217275850913e-02 -2.6301989043528397e-02  -8.3705031171857278e-02 -3.8815979084205941e-02 -2.6422801867703970e-02  -7.0496538676383280e-02 -3.8438347200813253e-02 -2.6199242034820266e-02  -6.9738310674895804e-02 -3.2459103196735672e-02 -2.6021314253304902e-02  -9.6906708398379324e-02 -3.2789663569643517e-02 -2.6389157862386117e-02  -9.7210564804897745e-02 -3.9014380252320562e-02 -2.6464921311745482e-02  -1.1074304014091350e-01 -3.2809453158311588e-02 -2.6396469629640262e-02  -1.1095171666939357e-01 -3.9124882561546684e-02 -2.6437260017627060e-02  -1.2471104005501785e-01 -3.2827153003028776e-02 -2.6395886644507080e-02  -1.2487313610542687e-01 -3.9210981146077892e-02 -2.6409575755482972e-02  -1.3878337865762144e-01 -3.2882077161318538e-02 -2.6435993542411714e-02  -1.3893034624457970e-01 -3.9315378225909532e-02 -2.6427275202291146e-02  -1.5291120918401335e-01 -3.2997923296888276e-02 -2.6569601962007472e-02  -1.5304984900600457e-01 -3.9442593901522528e-02 -2.6564298584068557e-02  -8.2459540119202451e-02 -2.6437969142081671e-02 -2.6437969142081567e-02  -6.8642624083070106e-02 -2.6250497348872796e-02 -2.6250497348872616e-02  -9.6365446224871143e-02 -2.6462539453827247e-02 -2.6462539453827125e-02  -1.1035217234319437e-01 -2.6429344036162296e-02 -2.6429344036162088e-02  -1.2441402340620959e-01 -2.6402441463019500e-02 -2.6402441463019153e-02  -1.3854170750119485e-01 -2.6422226362783394e-02 -2.6422226362782977e-02  -1.5270331140848087e-01 -2.6534846169242964e-02 -2.6534846169242468e-02  -8.1630082838083068e-02 -2.0001031020981115e-02 -2.6698954946271409e-02  -6.7537391812299841e-02 -1.9840370375687470e-02 -2.6655585352306759e-02  -9.5752853235086380e-02 -2.0006212136736763e-02 -2.6616400309782271e-02  -1.0989416575874571e-01 -1.9956676225868976e-02 -2.6507154877342471e-02  -1.2405865012334542e-01 -1.9912815518426840e-02 -2.6426059596299678e-02  -1.3824841668413695e-01 -1.9917535548606001e-02 -2.6406232421552541e-02  -1.5245861774681504e-01 -2.0026185494603391e-02 -2.6490476728545709e-02  -8.0918918688076172e-02 -1.3439006420606246e-02 -2.6970770415031150e-02  -6.6632930540053925e-02 -1.3313140946418320e-02 -2.7064162110843604e-02  -9.5207990884613958e-02 -1.3441795419242702e-02 -2.6781947912004674e-02  -1.0947506993255791e-01 -1.3399822429239287e-02 -2.6594147221022758e-02  -1.2372569651500850e-01 -1.3361134898806627e-02 -2.6455551024845734e-02  -1.3797030505854915e-01 -1.3363256205876585e-02 -2.6394367381142800e-02  -1.5222837828015956e-01 -1.3452431508043950e-02 -2.6453234775558020e-02  -8.0446917152179179e-02 -6.8010554809350325e-03 -2.7166743863199724e-02  -6.6050553713240465e-02 -6.7322334036650335e-03 -2.7353494367892407e-02  -9.4836932151200773e-02 -6.8035565674250459e-03 -2.6903441162060657e-02  -1.0918366097606493e-01 -6.7817934420524697e-03 -2.6659119202111350e-02  -1.2348996274972759e-01 -6.7619540308213140e-03 -2.6478511820688461e-02  -1.3777158166041473e-01 -6.7669530131840138e-03 -2.6387482902020729e-02  -1.5206362508533908e-01 -6.8203326281757919e-03 -2.6428965790331702e-02  -8.0279535275450079e-02 -1.2896066526057548e-04 -2.7233870391492672e-02  -6.5846647354662294e-02 -1.3331686214285463e-04 -2.7452783299409519e-02  -9.4703090090856160e-02 -1.2917685394689673e-04 -2.6944917604204137e-02  -1.0907661931041043e-01 -1.3259215410809400e-04 -2.6680933931630967e-02  -1.2340145628447205e-01 -1.3768824978040595e-04 -2.6485656698833664e-02  -1.3769620212628647e-01 -1.4679271256554373e-04 -2.6384523786683434e-02  -1.5200034835723761e-01 -1.5404956867601845e-04 -2.6420351343206975e-02  -8.0437869045526869e-02 6.5436481479419755e-03 -2.7155329067375771e-02  -6.6038236110980295e-02 6.4669338314644617e-03 -2.7339813030956790e-02  -9.4827729851024986e-02 6.5450366564878048e-03 -2.6894843661837371e-02  -1.0917339334316446e-01 6.5161914361688876e-03 -2.6652846871661952e-02  -1.2347770854501777e-01 6.4861838428283821e-03 -2.6474061958045473e-02  -1.3775962616437870e-01 6.4739349408700032e-03 -2.6385125321326763e-02  -1.5205122617715680e-01 6.5132716040411211e-03 -2.6428114070853208e-02  -8.0902118406794912e-02 1.3182594799676022e-02 -2.6950310958207119e-02  -6.6611515328779097e-02 1.3052405634699388e-02 -2.7038658111143248e-02  -9.5190090008936384e-02 1.3182496413612788e-02 -2.6766898201341562e-02  -1.0945453159496174e-01 1.3132835018635566e-02 -2.6583376300335984e-02  -1.2370121671929959e-01 1.3084074720883973e-02 -2.6447928448353881e-02  -1.3794608398405794e-01 1.3071662722678587e-02 -2.6390194209214183e-02  -1.5220319582059405e-01 1.3148056756052946e-02 -2.6451532430506602e-02  -8.1607077399120098e-02 1.9745437657129102e-02 -2.6675075772329741e-02  -6.7512725640523116e-02 1.9586159227079285e-02 -2.6623426349768820e-02  -9.5726344985407871e-02 1.9745275016162529e-02 -2.6599511400986198e-02  -1.0986281304117743e-01 1.9687491403096904e-02 -2.6495504223355153e-02  -1.2402167920225342e-01 1.9633571540870271e-02 -2.6417936927253839e-02  -1.3821116356912816e-01 1.9627760887906874e-02 -2.6401331936440911e-02  -1.5242005039849690e-01 1.9725234766217282e-02 -2.6487859155565365e-02  -8.2431342503673691e-02 2.6181025520958353e-02 -2.6420746643928236e-02  -6.8623370586102059e-02 2.6001418116186534e-02 -2.6223261907481202e-02  -9.6329943146382560e-02 2.6198383529297899e-02 -2.6451134302310202e-02  -1.1030922806170076e-01 2.6156900224959902e-02 -2.6421951095909776e-02  -1.2436484393606527e-01 2.6119874273901961e-02 -2.6397116184570017e-02  -1.3849068159047939e-01 2.6133663254530856e-02 -2.6417682908160420e-02  -1.5265047438280049e-01 2.6236532433171721e-02 -2.6530518677963012e-02  -8.3192706860698989e-02 3.2442826241568086e-02 -2.6303169941720179e-02  -6.9721136246435847e-02 3.2205507846489664e-02 -2.6019963198877633e-02  -9.6856382008690345e-02 3.2519793348953697e-02 -2.6390797425920241e-02  -1.1068333649945994e-01 3.2532369097701380e-02 -2.6398515400461255e-02  -1.2464460791551799e-01 3.2541756845343058e-02 -2.6398120765228565e-02  -1.3871481230487870e-01 3.2594129892056421e-02 -2.6436576888880917e-02  -1.5284371715862516e-01 3.2697930967084655e-02 -2.6568016157472809e-02  -8.3655557740948752e-02 3.8550349293093089e-02 -2.6439447470835566e-02  -7.0483199645463096e-02 3.8177720145688529e-02 -2.6216609410891035e-02  -9.7147442909848600e-02 3.8741092120463796e-02 -2.6476640372952352e-02  -1.1087755358513865e-01 3.8845856426068984e-02 -2.6446598705611238e-02  -1.2479370982360619e-01 3.8924567669469945e-02 -2.6416654182181473e-02  -1.3884609214197319e-01 3.9023582198767892e-02 -2.6433915504429438e-02  -1.5297061801800260e-01 3.9146461829875169e-02 -2.6559294161922160e-02  -8.2397635307490280e-02 -3.3018742728560764e-02 -1.9913286655492142e-02  -8.2799456128294