<?xml version="1.0"?>
<VTKFile type="UnstructuredGrid"  version="0.1"  >
<UnstructuredGrid>
<Piece  NumberOfPoints="2197" NumberOfCells="10368">
<Points>
<DataArray  type="Float64"  NumberOfComponents="3"  format="ascii">0 0 0  0.09861150878148023 0.01741408824797226 0.01741408824797226  0.191014277696709 0.02316748430335642 0.02316748430335644  0.2822880625290429 0.02678581679864657 0.02678581679864655  0.3737229289401342 0.02904566729488563 0.02904566729488563  0.4655898906181467 0.03045510336804976 0.03045510336804974  0.5579601207748235 0.03132319326660668 0.03132319326660668  0.6508146280940831 0.03185272547556772 0.03185272547556774  0.7440958508812913 0.03218409956507281 0.03218409956507282  0.837733102097761 0.03241720629854905 0.03241720629854906  0.9316482599942142 0.03262744120996217 0.03262744120996217  1.025764338998676 0.03286860071465122 0.03286860071465126  1.119951341337436 0.03317483849294866 0.03317483849294866  0 0.08333333333333333 0  0.09393911756508083 0.09517953530419536 0.01861946001251821  0.1870517549065656 0.1019741242323074 0.02376002287691738  0.2794708125216976 0.1058726353414828 0.02717608427424324  0.3717642569304049 0.1080863252377738 0.02929306412403958  0.4642419656315366 0.1093300184221457 0.03061114489852542  0.5570379052538903 0.1100037528122083 0.03141961706245242  0.6501765898774444 0.1103464524440058 0.03190828199521362  0.7436335634583805 0.1105137317982885 0.03221104924862108  0.8373641805113696 0.1106108848866954 0.03242385643945449  0.9313155443908622 0.1107156660721499 0.03262068145622433  1.025431384426988 0.1108856836659055 0.03285758580173763  1.119618524842273 0.1111841178539873 0.03315739743033844  0 0.1666666666666667 0  0.09291166509958088 0.1748319784863877 0.01932657216756902  0.1849326653863531 0.1807599418469222 0.02484048592912482  0.2772562399277352 0.1845435611832071 0.02813866289080235  0.3698750982880714 0.186717263143337 0.03001255392573201  0.4627480850074137 0.1878773683765068 0.03111500020877035  0.5558931828516109 0.1884414181887495 0.03175707608092355  0.6493056621177893 0.1886711911557618 0.03212004321817801  0.7429596662636793 0.1887342125526859 0.03232885130255739  0.8368195935647925 0.1887397928955618 0.03247108649750012  0.9308468280486245 0.1887658440596191 0.0326149517797281  1.024999400798726 0.1888755449771452 0.0328080685687112  1.119208853751202 0.1891702182031829 0.03306779739789029  0 0.25 0  0.09263465721641763 0.2556775125612896 0.01980049326019835  0.1839115800131959 0.2600948065025135 0.02572780826861138  0.2758059304536544 0.2632086877357576 0.02907302040772463  0.3683784247381683 0.2651069850684479 0.0308137361342512  0.4614061163088427 0.2661360428301326 0.0317316006246026  0.5547702750698972 0.266618812003573 0.03219678640078278  0.6483947561564699 0.2667896885250913 0.0324100376800217  0.7422226095303031 0.2668056304054248 0.03249869257352887  0.8362086257740886 0.2667697061889377 0.03254544329498783  0.9303161342438442 0.2667542088288348 0.0326112770291398  1.024509539625211 0.2668260342222277 0.03273272103916801  1.118746277340695 0.2670971190238786 0.03292306657968077  0 0.3333333333333333 0  0.09253603924724749 0.3370114566912107 0.02012906095451535  0.183411579552665 0.3399090769701062 0.0263418171168116  0.2749433013388446 0.3420695826122736 0.02978063809208603  0.3673552330249977 0.3434573442027951 0.03147101146108651  0.4603927189994904 0.3442358735615585 0.03227009673036186  0.5538605311032844 0.3446061467015944 0.03259921681314326  0.6476187070675173 0.3447345742180503 0.03268541229421139  0.7415715726448073 0.3447401367522578 0.03266515027291116  0.8356550422795614 0.3447035975064542 0.03262078331366577  0.9298265272991331 0.3446816279550503 0.03260817285385853  1.024053687502622 0.3447336276514908 0.03265511740332883  1.118315579709755 0.3449475600732971 0.03277341814578401  0 0.4166666666666667 0  0.09249888039776331 0.4185733012305846 0.02032524641355123  0.1831726004791712 0.4200152652035753 0.0266993529834973  0.2744854269257415 0.4211203673479611 0.03021223278817909  0.3667637196963687 0.4218531967253092 0.03189003515492626  0.4597679130425157 0.422277522093876 0.03262564869987403  0.5532719614257551 0.4224871526133092 0.03287244648123624  0.6470981077829449 0.4225662512993568 0.03287654923533077  0.7411226071733281 0.4225779485014975 0.03278263686432308  0.8352651760592451 0.4225665731348057 0.03267444622106647  0.9294763163496867 0.4225626629481808 0.03260505032791788  1.023725669526608 0.4226041365179567 0.03259759635231615  1.118004713087809 0.4227287109402486 0.03266313183727761  0 0.5 0  0.09248166192480632 0.5002414670951233 0.02039901628472715  0.1830875774895961 0.5002619970929231 0.02682301836007969  0.2743266904341904 0.5002786293975617 0.03036134992979332  0.3665551387081181 0.500292317102582 0.03203620452487987  0.4595418171255871 0.5003070937717572 0.03275063293440316  0.5530533156779844 0.500324628295753 0.03296896440854365  0.6468997637634661 0.5003448460537844 0.03294416274502408  0.740947344810963 0.5003674836306996 0.03282395701229134  0.8351096624329277 0.5003927472518249 0.03269274395270819  0.9293341633126402 0.5004188115566157 0.03260242225680744  1.023592157449603 0.5004522448099539 0.03257532794368507  1.117876326165165 0.500469156362694 0.03262109240617672  0 0.5833333333333334 0  0.09247323874118274 0.5819279406151147 0.02035477839358732  0.183129052115428 0.5805195596752273 0.02672064164288986  0.2744357317315975 0.5794433459923335 0.0302292829248131  0.366710973215509 0.5787358329158033 0.03190169290261341  0.4597138331716187 0.5783395605758619 0.03263173345067546  0.5532180005907251 0.578163842957271 0.03287437208344435  0.6470448515187952 0.5781243325134806 0.03287584604447662  0.7410699689259318 0.5781573206936097 0.03278037655278446  0.8352132305936113 0.578218579974577 0.03267137570709044  0.9294245972508024 0.5782744091383412 0.03260087703915303  1.023676998255415 0.5782980523933918 0.03259382385383581  1.117953020262495 0.578209517239139 0.03265760870477428  0 0.6666666666666666 0  0.09247881383845004 0.6635487823680012 0.0201917160431496  0.1833237754361664 0.6606578536842065 0.0263876974822773  0.2748432980202873 0.6585138250693822 0.02981667509928852  0.3672482702955483 0.6571445422148757 0.03149426187321254  0.4602836991893583 0.6563889971200209 0.03228160967726437  0.5537528723800169 0.6560491200969764 0.03260249537616888  0.6475131274773277 0.6559580040634533 0.03268376484529872  0.741467392070797 0.6559957097028146 0.03266069889594569  0.8355519667259818 0.6560805387018547 0.03261487714571923  0.9297234853930051 0.656153955221754 0.03260040710565663  1.023956055528312 0.6561621182050321 0.03264807304681173  1.118212565307568 0.6559910023186747 0.03276341444482286  0 0.75 0  0.09255340891976414 0.7449716174366078 0.0199002397101951  0.1837896503376066 0.7405255926469049 0.0258100081366569  0.2756536895544923 0.737409530050015 0.02913048612342994  0.3682141528661988 0.7355145032894295 0.03084751491730827  0.4612419306084124 0.7344983072646983 0.03174658740754802  0.5546108284799447 0.7340405397723262 0.03220019681195092  0.6482392870304274 0.7339045313380408 0.03240697214024461  0.7420687079484038 0.733930704126276 0.03249233781824648  0.8360549797702025 0.7340132615945599 0.03253750464495345  0.930161511970336 0.7340796333689623 0.03260151410953029  1.024361096102918 0.7340606676632077 0.03272327026292646  1.118591638501015 0.733843576112176 0.03291007752313405  0 0.8333333333333334 0  0.09283690644297785 0.8259941431863835 0.01948978935149021  0.1847451047962644 0.8199520164259139 0.0249731113112572  0.2770179440904861 0.8161124558157763 0.02822821882449838  0.3696419566266507 0.8139170643377384 0.03005250209264556  0.4625309238415092 0.8127570766136496 0.03112889023228787  0.5556879626327833 0.8122158776219731 0.0317569116455229  0.649105243304785 0.8120219585240046 0.03211348170280084  0.7427590064961027 0.8120019339012957 0.03231995499783723  0.8366167451162023 0.8120426338557448 0.03246144495191886  0.9306410887114295 0.8120672883728927 0.0326043655138756  1.024795757853527 0.8120033844538483 0.0327961207497709  1.118999340290768 0.8117748358891368 0.03305328112904699  0 0.9166666666666666 0  0.09377806896119199 0.9059088753910659 0.01867035266186472  0.1868023529679451 0.8987840990386029 0.02396847465259072  0.2792048565217568 0.8947978481703969 0.02724314831916528  0.3715214458464505 0.892544133074603 0.02931270253621407  0.4640126189826925 0.891301868067783 0.03060572401455537  0.5568076882818567 0.8906560962353417 0.03140888839693793  0.6499381479208733 0.8903520664510396 0.03189831790373856  0.7433850872525726 0.8902280847961515 0.03220331414983191  0.8371062814765622 0.8901762714410933 0.03241803786753296  0.9310496075558673 0.8901199894761589 0.03261532649579258  1.025159765525061 0.8899913679924641 0.03284752786602885  1.11934617561753 0.8897607410323868 0.03314543169573583  0 1 0  0.09812610627917463 0.9838814021472044 0.01947416628917365  0.1905578026168877 0.9775546481417852 0.02327028972412117  0.2819547891236284 0.9738053500577368 0.02685764568739261  0.373426771211804 0.9715324601749276 0.02904163221341431  0.465297132477921 0.9701492275030034 0.03042412693804847  0.5576553276804024 0.9693229024974753 0.03129559211860759  0.6504955509742542 0.9688391559076986 0.03183079989974509  0.7437649162565261 0.9685546973094286 0.03216759373671307  0.8373939938008343 0.968368868497406 0.03240499777433136  0.9313085770976494 0.9682076202502294 0.03261747044349221  1.025422726911586 0.9680131138269824 0.03285818690447154  1.119617924797914 0.9677678721855405 0.03316144039536713  0 0 0.08333333333333333  0.09393911756508083 0.01861946001251822 0.09517953530419535  0.1870517549065656 0.02376002287691739 0.1019741242323074  0.2794708125216976 0.02717608427424323 0.1058726353414828  0.371764256930405 0.02929306412403954 0.1080863252377738  0.4642419656315366 0.03061114489852547 0.1093300184221458  0.5570379052538903 0.03141961706245237 0.1100037528122083  0.65
[...]
<PointData  Vectors="f_35"> 
<DataArray  type="Float64"  Name="f_35"  NumberOfComponents="3" format="ascii">0.0000000000000000e+00 0.0000000000000000e+00 0.0000000000000000e+00  -1.7289243501404622e-02 -2.3209578201390038e-02 -2.3209578201390055e-02  -3.0343288500891862e-02 -3.2509415813571821e-02 -3.2509415813571807e-02  -4.1420598241959261e-02 -3.8285356904308496e-02 -3.8285356904308503e-02  -5.2564756801099392e-02 -4.1904305626368508e-02 -4.1904305626368592e-02  -6.4259535654075176e-02 -4.4147181244575749e-02 -4.4147181244575812e-02  -7.6619608694036126e-02 -4.5511298660088330e-02 -4.5511298660088281e-02  -8.9604561106031738e-02 -4.6322208055647199e-02 -4.6322208055647220e-02  -1.0311638731200697e-01 -4.6797387432071666e-02 -4.6797387432071638e-02  -1.1704583592002003e-01 -4.7082247059353016e-02 -4.7082247059352912e-02  -1.3128745693138963e-01 -4.7276689674245934e-02 -4.7276689674245781e-02  -1.4576904022869583e-01 -4.7440763808691784e-02 -4.7440763808691624e-02  -1.6038541476370546e-01 -4.7557893917219804e-02 -4.7557893917219617e-02  0.0000000000000000e+00 0.0000000000000000e+00 0.0000000000000000e+00  -1.2152416577711950e-02 -1.5719778538409477e-02 -2.5203284961480724e-02  -2.5682584611704421e-02 -2.6233743606270309e-02 -3.3538974575495609e-02  -3.8029249088663751e-02 -3.2262332635014164e-02 -3.8925601045160310e-02  -5.0220341532996017e-02 -3.5734822420773166e-02 -4.2304506340575455e-02  -6.2682880918862649e-02 -3.7686331597761545e-02 -4.4397124552894761e-02  -7.5580484538110435e-02 -3.8740065428664226e-02 -4.5666436486111239e-02  -8.8928706754807102e-02 -3.9271380601872553e-02 -4.6415816509667834e-02  -1.0267703937491933e-01 -3.9515438198235414e-02 -4.6850891475853591e-02  -1.1675392307366209e-01 -3.9619208801087734e-02 -4.7110291853523431e-02  -1.3108732228766481e-01 -3.9676330343880913e-02 -4.7290263062326546e-02  -1.4561915388713717e-01 -3.9733649051980714e-02 -4.7448749651704765e-02  -1.6025782320657023e-01 -3.9828407101416344e-02 -4.7571067764693560e-02  0.0000000000000000e+00 0.0000000000000000e+00 0.0000000000000000e+00  -1.0934640687658167e-02 -1.0764871476128444e-02 -2.6268732291325453e-02  -2.3108196518467586e-02 -1.9931031571788292e-02 -3.5140504753418844e-02  -3.5376044079960048e-02 -2.5692509105840568e-02 -4.0335436497428885e-02  -4.7999294900425669e-02 -2.9010443174557275e-02 -4.3372395766365104e-02  -6.0973778897459689e-02 -3.0777349703848895e-02 -4.5156981572442696e-02  -7.4321997310916293e-02 -3.1633870988093504e-02 -4.6187970535350446e-02  -8.8026046320421034e-02 -3.1981693368886011e-02 -4.6759755713463226e-02  -1.0203731261027185e-01 -3.2068691062784337e-02 -4.7066315476838039e-02  -1.1629847011142111e-01 -3.2044251350176162e-02 -4.7234880107634651e-02  -1.3075448074744581e-01 -3.1998866727959437e-02 -4.7352625265326770e-02  -1.4535781208599724e-01 -3.1983894221708185e-02 -4.7467191431480260e-02  -1.6003755230175573e-01 -3.2074122379299255e-02 -4.7564601653369683e-02  0.0000000000000000e+00 0.0000000000000000e+00 0.0000000000000000e+00  -1.0552977911588060e-02 -7.4269838512927193e-03 -2.6875825403378566e-02  -2.1830017600078105e-02 -1.4309227315900246e-02 -3.6386515089068240e-02  -3.3618572065763248e-02 -1.9050909278057256e-02 -4.1680115848755174e-02  -4.6241785036585173e-02 -2.1913623254973397e-02 -4.4543330752017864e-02  -5.9451060879454481e-02 -2.3442142859870441e-02 -4.6074702590700845e-02  -7.3101498438616186e-02 -2.4145839036997054e-02 -4.6861275903909996e-02  -8.7091639533049325e-02 -2.4385878170305433e-02 -4.7227066761714231e-02  -1.0133934576423050e-01 -2.4393232785190760e-02 -4.7371814047847946e-02  -1.1577921176014390e-01 -2.4307892692182174e-02 -4.7418118595042233e-02  -1.3036012878832542e-01 -2.4213881393073376e-02 -4.7445262316642367e-02  -1.4504130075160199e-01 -2.4166734556071750e-02 -4.7492123472221884e-02  -1.5977387643265001e-01 -2.4247722041491653e-02 -4.7551862301073389e-02  0.0000000000000000e+00 0.0000000000000000e+00 0.0000000000000000e+00  -1.0395494569190483e-02 -4.7905870605041761e-03 -2.7281222428455824e-02  -2.1192393184798413e-02 -9.3258105051205777e-03 -3.7228086492846105e-02  -3.2561988024028536e-02 -1.2620278709853527e-02 -4.2690063942893562e-02  -4.5032461720196010e-02 -1.4702647503860501e-02 -4.5501097450284314e-02  -5.8300203312754990e-02 -1.5839587926657097e-02 -4.6876054293666994e-02  -7.2116006112655409e-02 -1.6358274787346725e-02 -4.7478260770682713e-02  -8.6299585391391112e-02 -1.6519933878761852e-02 -4.7671457315652581e-02  -1.0072505753078306e-01 -1.6501055385068530e-02 -4.7670978546556012e-02  -1.1530805554363552e-01 -1.6411699246608503e-02 -4.7601866560258395e-02  -1.2999339974777613e-01 -1.6318438536326592e-02 -4.7539869773044155e-02  -1.4474435581810022e-01 -1.6270781116745472e-02 -4.7519811848210046e-02  -1.5953005415186761e-01 -1.6332609885833224e-02 -4.7544926851317004e-02  0.0000000000000000e+00 0.0000000000000000e+00 0.0000000000000000e+00  -1.0327908653226416e-02 -2.4835612831314424e-03 -2.7523040793870659e-02  -2.0887539214899914e-02 -4.7436529752060462e-03 -3.7714348820457051e-02  -3.2001849527419225e-02 -6.4182741022128223e-03 -4.3304378405693171e-02  -4.4333783296431860e-02 -7.5062362199545801e-03 -4.6112847729523967e-02  -5.7592540192980109e-02 -8.1104012025320013e-03 -4.7407770482646529e-02  -7.1481992623560087e-02 -8.3858541027469098e-03 -4.7900070812256175e-02  -8.5772616945832450e-02 -8.4670944097514321e-03 -4.7982563259280984e-02  -1.0030556203775214e-01 -8.4489823781967992e-03 -4.7884359169545324e-02  -1.1497945351029558e-01 -8.3924774860476680e-03 -4.7734874390312695e-02  -1.2973334198901251e-01 -8.3343244708508867e-03 -4.7609160443799529e-02  -1.4453282739114318e-01 -8.3062025335097524e-03 -4.7541487075006987e-02  -1.5935743764563776e-01 -8.3386174484459553e-03 -4.7542376054801702e-02  0.0000000000000000e+00 0.0000000000000000e+00 0.0000000000000000e+00  -1.0299415857789408e-02 -3.2661660054195742e-04 -2.7616815794851327e-02  -2.0784224875074975e-02 -3.5434488384222958e-04 -3.7885055701785374e-02  -3.1814830961255806e-02 -3.4978562566951644e-04 -4.3519995744395315e-02  -4.4094728686597667e-02 -3.4451420855597666e-04 -4.6330714273370370e-02  -5.7343992635775956e-02 -3.3769396283804960e-04 -4.7599505045469871e-02  -7.1254469105156495e-02 -3.2980908770129010e-04 -4.8053776044947968e-02  -8.5580084712209847e-02 -3.2171974943647716e-04 -4.8096948168742257e-02  -1.0014970369807163e-01 -3.1392999702440521e-04 -4.7963341486291680e-02  -1.1485531643459146e-01 -3.0735454044918445e-04 -4.7784270783912029e-02  -1.2963335291964209e-01 -3.0126628407529807e-04 -4.7634580348432390e-02  -1.4445122766839089e-01 -3.0152028041654768e-04 -4.7549362363957549e-02  -1.5929053400266052e-01 -2.9827067984491772e-04 -4.7540211098670529e-02  0.0000000000000000e+00 0.0000000000000000e+00 0.0000000000000000e+00  -1.0296066798557175e-02 1.8109728420637103e-03 -2.7567717902392892e-02  -2.0849293856210777e-02 4.0266601966344410e-03 -3.7752270297887566e-02  -3.1963869334303736e-02 5.7125727199174234e-03 -4.3339936765865499e-02  -4.4295287561958725e-02 6.8122447328123822e-03 -4.6143549906559694e-02  -5.7555973097093392e-02 7.4319985187086216e-03 -4.7431305596940053e-02  -7.1449658893305124e-02 7.7247896085710912e-03 -4.7917033562489435e-02  -8.5744850447829854e-02 7.8230433957303062e-03 -4.7994327121727534e-02  -1.0028134846738039e-01 7.8208334545315193e-03 -4.7891977633653646e-02  -1.1495772928799443e-01 7.7777812043424840e-03 -4.7739105850128777e-02  -1.2971278536604833e-01 7.7319385638692489e-03 -4.7609910524398835e-02  -1.4451563797596878e-01 7.7047969607088145e-03 -4.7540603220511408e-02  -1.5934175171324741e-01 7.7438432909476690e-03 -4.7536847464056120e-02  0.0000000000000000e+00 0.0000000000000000e+00 0.0000000000000000e+00  -1.0325733854666144e-02 4.0573087555312529e-03 -2.7371325516084715e-02  -2.1118446638761359e-02 8.5827398332373184e-03 -3.7304681775239212e-02  -3.2486155852797301e-02 1.1894305834833490e-02 -4.2762028894209693e-02  -4.4954822689345079e-02 1.3994240633677144e-02 -4.5561501294463493e-02  -5.8228051220213350e-02 1.5153691712553376e-02 -4.6921941780359147e-02  -7.2053857043950995e-02 1.5694196294503283e-02 -4.7511479648439964e-02  -8.6247041632434684e-02 1.5874863698902286e-02 -4.7694869380718784e-02  -1.0067948329433338e-01 1.5872405947356304e-02 -4.7686560224311766e-02  -1.1526705985132364e-01 1.5797138177408125e-02 -4.7610931175480181e-02  -1.2995429429948455e-01 1.5716433182261267e-02 -4.7542239955159604e-02  -1.4471119543807023e-01 1.5673972348373675e-02 -4.7518572907602807e-02  -1.5949938593058760e-01 1.5742628400598452e-02 -4.7534582016002927e-02  0.0000000000000000e+00 0.0000000000000000e+00 0.0000000000000000e+00  -1.0457272314265820e-02 6.6084471539400525e-03 -2.7003160157515887e-02  -2.1732089102395206e-02 1.3516574197698366e-02 -3.6507179647871743e-02  -3.3503656870811985e-02 1.8286280045390547e-02 -4.1788540309879427e-02  -4.6124762603530246e-02 2.1184924361687913e-02 -4.4630729286028771e-02  -5.9347690330018361e-02 2.2749386107150747e-02 -4.6140229110530118e-02  -7.3015747863257263e-02 2.3480790532389689e-02 -4.6909491578087451e-02  -8.7020342432921186e-02 2.3741250572389766e-02 -4.7262044078438585e-02  -1.0127748715732869e-01 2.3764661634071593e-02 -4.7396255641714798e-02  -1.1572297259764075e-01 2.3693702891183201e-02 -4.7433513753212156e-02  -1.3030583767778334e-01 2.3612038416845504e-02 -4.7451327549337896e-02  -1.4499426209811872e-01 2.3576525154912820e-02 -4.7491761405653747e-02  -1.5972933024147118e-01 2.3663954977259444e-02 -4.7538223826748209e-02  0.0000000000000000e+00 0.0000000000000000e+00 0.0000000000000000e+00  -1.0828088775100180e-02 9.7610629050974406e-03 -2.6418721703046408e-02  -2.2959248120496441e-02 1.9031712619630266e-02 -3.5305756320944640e-02  -3.5189711767629549e-02 2.4887531488904140e-02 -4.0485842110064653e-02  -4.7841545715319851e-02 2.8273579509738127e-02 -4.3482121131867391e-02  -6.0849335227055025e-02 3.0091383591425335e-02 -4.5237984126352833e-02  -7.4224277316628867e-02 3.0976534805145998e-02 -4.6248490801085972e-02  -8.7945302978568604e-02 3.1341951448616095e-02 -4.6805614651102834e-02  -1.0196630008665220e-01 3.1442184289796532e-02 -4.7100619726443929e-02  -1.1623272935602151e-01 3.1430681134129126e-02 -4.7258761724435161e-02  -1.3069048801332508e-01 3.1396272069739592e-02 -4.7365315734035095e-02  -1.4529902425213734e-01 3.1401236758098354e-02 -4.7469543650386276e-02  -1.5997959770071776e-01 3.1494758437631706e-02 -4.7550612544553617e-02  0.0000000000000000e+00 0.0000000000000000e+00 0.0000000000000000e+00  -1.2118635987601149e-02 1.4417725270330107e-02 -2.5160593320024273e-02  -2.5469106881071353e-02 2.5284422052965456e-02 -3.3768887252335039e-02  -3.7856729271672274e-02 3.1457657722211527e-02 -3.9063899397860286e-02  -5.0089367149885017e-02 3.5010809300906762e-02 -4.2411993692624862e-02  -6.2581555857700477e-02 3.7009653914561673e-02 -4.4477400777038475e-02  -7.5492920320806706e-02 3.8085563594695115e-02 -4.5733827764841833e-02  -8.8847712253560959e-02 3.8630946524634155e-02 -4.6474153472279831e-02  -1.0260026566928129e-01 3.8887156973641201e-02 -4.6900070496939214e-02  -1.1668048631952499e-01 3.9003934341587117e-02 -4.7148996603151534e-02  -1.3101712078212507e-01 3.9072292839847644e-02 -4.7315674007376358e-02  -1.4554871329113067e-01 3.9154840632357600e-02 -4.7458310356671675e-02  -1.6019322690982898e-01 3.9249027042553633e-02 -4.7565348920771133e-02  0.0000000000000000e+00 0.0000000000000000e+00 0.0000000000000000e+00  -1.6363613352375513e-02 2.1555873305165785e-02 -2.5553857168707863e-02  -3.0089999407942200e-02 3.1624478272080786e-02 -3.2868079164756550e-02  -4.1238077109565084e-02 3.7582381704587692e-02 -3.8504099834858481e-02  -5.2422899620841693e-02 4.1260535426518211e-02 -4.2036476656788953e-02  -6.4133658302174990e-02 4.3524405829461668e-02 -4.4230037728490226e-02  -7.6498579211209922e-02 4.4892165480171962e-02 -4.5582339068206301e-02  -8.9490455724319892e-02 4.5706205501087338e-02 -4.6385501360589637e-02  -1.0301184692041329e-01 4.6186399664847083e-02 -4.6852589422647660e-02  -1.1695275453295616e-01 4.6478870975161617e-02 -4.7127787711407021e-02  -1.3121046929585301e-01 4.6680558083922429e-02 -4.7308844082946701e-02  -1.4568694223072107e-01 4.6859441803358631e-02 -4.7455504427024203e-02  -1.6030941742836285e-01 4.6995511150390371e-02 -4.7573126592661899e-02  0.0000000000000000e+00 0.0000000000000000e+00 0.0000000000000000e+00  -1.2152416577711926e-02 -2.5203284961480721e-02 -1.5719778538409515e-02  -2.5682584611704414e-02 -3.3538974575495567e-02 -2.6233743606270350e-02  -3.8029249088663765e-02 -3.8925601045160317e-02 -3.2262332635014108e-02  -5.0220341532995962e-02 -4.2304506340575435e-02 -3.5734822420773228e-02  -6.2682880918862705e-02 -4.4397124552894761e-02 -3.7686331597761524e-02  -7.5580484538110476e-02 -4.5666436486111295e-02 -3.8740065428664247e-02  -8.8928706754807033e-02 -4.6415816509667938e-02 -3.9271380601872609e-02  -1.0267703937491954e-01 -4.6850891475853682e-02 -3.9515438198235373e-02  -1.1675392307366211e-01 -4.7110291853523500e-02 -3.9619208801087623e-02  -1.3108732228766495e-01 -4.7290263062326678e-02 -3.9676330343880836e-02  -1.4561915388713717e-01 -4.7448749651704841e-02 -3.9733649051980520e-02  -1.6025782320657034e-01 -4.7571067764693775e-02 -3.9828407101416122e-02  0.0000000000000000e+00 0.0000000000000000e+00 0.0000000000000000e+00  -6.4289251480223698e-03 -1.7230451069388406e-02 -1.7230451069388433e-02  -2.1075494699532540e-02 -2.6408749320141929e-02 -2.6408749320141929e-02  -3.4752053049042747e-02 -3.2368779009730050e-02 -3.2368779009730106e-02  -4.8001380061984671e-02 -3.5726729117616755e-02 -3.5726729117616811e-02  -6.1209995785078748e-02 -3.7649007357010635e-02 -3.7649007357010565e-02  -7.4624026027358237e-02 -3.8698709855088720e-02 -3.8698709855088782e-02  -8.8316584509639043e-02 -3.9235176435221363e-02 -3.9235176435221328e-02  -1.0228552670498904e-01 -3.9487097669377719e-02 -3.9487097669377635e-02  -1.1649706535862653e-01 -3.9599101465512127e-02 -3.9599101465512057e-02  -1.3091013459661205e-01 -3.9663340667247159e-02 -3.9663340667247020e-02  -1.4548319092119294e-01 -3.9730069074315345e-02 -3.9730069074315151e-02  -1.6014595886617183e-01 -3.9824207103982559e-02 -3.9824207103982351e-02  0.0000000000000000e+00 0.0000000000000000e+00 0.0000000000000000e+00  -5.2630977259924038e-03 -1.1391523806585934e-02 -1.8191363154746055e-02  -1.8569457354650383e-02 -1.9878858232270234e-02 -2.7604593298697938e-02  -3.2178198896643799e-02 -2.5417926910597168e-02 -3.3552380184912994e-02  -4.5862093912385431e-02 -2.8683449023093822e-02 -3.6599069042117384e-02  -5.9575529600829971e-02 -3.0493478786525495e-02 -3.8266248701468143e-02  -7.3429821840897580e-02 -3.1413543501227555e-02 -3.9116182548968009e-02  -8.7466224872355211e-02 -3.1822161883068210e-02 -3.9505590001771819e-02  -1.0168638707467260e-01 -3.1959989127919121e-02 -3.9652628473939307e-02  -1.1607189792541997e-01 -3.1975435867082090e-02 -3.9691682987229485e-02  -1.3059898087144414e-01 -3.1959783784474852e-02 -3.9707412964430477e-02  -1.4524058928437511e-01 -3.1968725476755437e-02 -3.9743884752487343e-02  -1.5994201877040040e-01 -3.2058800156202660e-02 -3.9822862941365979e-02  0.0000000000000000e+00 0.0000000000000000e+00 0.0000000000000000e+00  -4.7929857513931131e-03 -7.9080275384689671e-03 -1.8825399148682250e-02  -1.7058968405469409e-02 -1.4238541970442156e-02 -2.8778195495806066e-02  -3.0397325353258346e-02 -1.8694057878059885e-02 -3.4781354639146125e-02  -4.4158577856271364e-02 -2.1491786332458327e-02 -3.7665112239635555e-02  -5.8125603596267873e-02 -2.3061249265775102e-02 -3.9105437299397000e-02  -7.2279689104899181e-02 -2.3843976455254073e-02 -3.9730814135822218e-02  -8.6592072657725061e-02 -2.4164504938646747e-02 -3.9930176721276057e-02  -1.0103647889893999e-01 -2.4241197489866056e-02 -3.9928142505014738e-02  -1.1558906115212170e-01 -2.4211056183041361e-02 -3.9855369170169935e-02  -1.3023089918048639e-01 -2.4158906078968638e-02 -3.9790273795763151e-02  -1.4494455887341443e-01 -2.4142934639914342e-02 -3.9772806321942827e-02  -1.5969944911488959e-01 -2.4230247843686471e-02 -3.9825319463572983e-02  0.0000000000000000e+00 0.0000000000000000e+00 0.0000000000000000e+00  -4.5440304289547295e-03 -5.1066881127661747e-03 -1.9250872467694406e-02  -1.6283810677498144e-02 -9.2556549532904209e-03 -2.9600901228215730e-02  -2.9306962435894122e-02 -1.2335167328218490e-02 -3.5739257559513300e-02  -4.2981475973544216e-02 -1.4353520016502024e-02 -3.8575317415985473e-02  -5.7032885920436815e-02 -1.5510492040682526e-02 -3.9866848127737942e-02  -7.1355476537705964e-02 -1.6089399325158862e-02 -4.0316096634110031e-02  -8.5854679358822905e-02 -1.6318462716194731e-02 -4.0350469335244103e-02  -1.0046693490098849e-01 -1.6360434417317202e-02 -4.0209841576576991e-02  -1.1515237319577928e-01 -1.6320824602827192e-02 -4.0027727115024614e-02  -1.2988906825879853e-01 -1.6266189444552742e-02 -3.9880431598666714e-02  -1.4466570733885861e-01 -1.6246128689202100e-02 -3.9807360222480812e-02  -1.5947285459010496e-01 -1.6316445595573228e-02 -3.9834921332413079e-02  0.0000000000000000e+00 0.0000000000000000e+00 0.0000000000000000e+00  -4.4225622166043088e-03 -2.6608885899220545e-03 -1.9500620583098139e-02  -1.5891686755669661e-02 -4.7021116994532394e-03 -3.0082176526440314e-02  -2.8707479961988292e-02 -6.2637660362674348e-03 -3.6333409468151980e-02  -4.2292953757866236e-02 -7.3139759473855497e-03 -3.9164566965737238e-02  -5.6360127774313457e-02 -7.9237036128469215e-03 -4.0377948422983756e-02  -7.0762463642082787e-02 -8.2295222495129185e-03 -4.0720961964479517e-02  -8.5365825620712654e-02 -8.3475112803644679e-03 -4.0648420009829239e-02  -1.0007935925468832e-01 -8.3640358606170279e-03 -4.0413571257554466e-02  -1.1484871329373642e-01 -8.3365521800462129e-03 -4.0154512459425751e-02  -1.2964720021419149e-01 -8.3016650798654976e-03 -3.9947879287986238e-02  -1.4446665601731001e-01 -8.2890813952770752e-03 -3.9834468056723506e-02  -1.5931121508532217e-01 -8.3287227135968520e-03 -3.9844476850221792e-02  0.0000000000000000e+00 0.0000000000000000e+00 0.0000000000000000e+00  -4.3773404356675866e-03 -3.7363926915236900e-04 -1.9593657669493312e-02  -1.5755653849767504e-02 -3.4591482686152435e-04 -3.0248820102854051e-02  -2.8501888673685919e-02 -3.4517990427143652e-04 -3.6541714292038681e-02  -4.2053742662041135e-02 -3.4155241719427773e-04 -3.9373991856279884e-02  -5.6122567407924102e-02 -3.3257977835272705e-04 -4.0561838321774631e-02  -7.0549596399882980e-02 -3.2368947386705009e-04 -4.0868147465201857e-02  -8.5187586755447964e-02 -3.1537098843828346e-04 -4.0757719146081915e-02  -9.9935857441774828e-02 -3.0813114236919858e-04 -4.0488843988835156e-02  -1.1473453970767711e-01 -3.0236856397216721e-04 -4.0201504499979113e-02  -1.2955492625317361e-01 -2.9784686014824169e-04 -3.9972608262684964e-02  -1.4439013069227891e-01 -2.9738114169146340e-04 -3.9843940349460392e-02  -1.5924858742819975e-01 -2.9790693484052180e-04 -3.9846883674168984e-02  0.0000000000000000e+00 0.0000000000000000e+00 0.0000000000000000e+00  -4.3947688918285679e-03 1.8918476129819056e-03 -1.9535588064099326e-02  -1.5842469750545370e-02 4.0042163483931586e-03 -3.0110353207918834e-02  -2.8657542134965582e-02 5.5691887028538733e-03 -3.6362523576271504e-02  -4.2248394213467259e-02 6.6291858936143267e-03 -3.9189746245173927e-02  -5.6322985710953316e-02 7.2585785213563686e-03 -4.0396902071271140e-02  -7.0732016691580121e-02 7.5827846930895844e-03 -4.0734322740058060e-02  -8.5340692953102135e-02 7.7173236459240051e-03 -4.0657492903622507e-02  -1.0005803843442014e-01 7.7480531211265753e-03 -4.0419315252419936e-02  -1.1483001348413739e-01 7.7320109959367464e-03 -4.0157426099922684e-02  -1.2963023309772215e-01 7.7062565231075233e-03 -3.9947960193720052e-02  -1.4445167993387031e-01 7.6955809118714131e-03 -3.9832250185166791e-02  -1.5929736352068610e-01 7.7350609143568708e-03 -3.9839412518634473e-02  0.0000000000000000e+00 0.0000000000000000e+00 0.0000000000000000e+00  -4.4829622587670747e-03 4.27013582787792