<?xml version="1.0"?>
<VTKFile type="UnstructuredGrid"  version="0.1"  >
<UnstructuredGrid>
<Piece  NumberOfPoints="614" NumberOfCells="2496">
<Points>
<DataArray  type="Float64"  NumberOfComponents="3"  format="ascii">0 0 0.3333333333333333  0 0 0.4166666666666667  0.09249888039776333 0.02032524641355124 0.4185733012305846  0.0867432866572995 0.09726069210708985 0.418534832409169  0 0.08333333333333333 0.4166666666666667  0.08670966111676999 0.09733308395736703 0.5002696623732134  0.09248166192480635 0.02039901628472716 0.5002414670951233  0 0 0.5  0 0.08333333333333333 0.5  0.1831726004791711 0.02669935298349727 0.4200152652035753  0.1787769710475439 0.104571722062813 0.4198926106414445  0.1786685890976391 0.1046928478847138 0.5002488408265889  0.183087577489596 0.02682301836007969 0.500261997092923  0.2744854269257415 0.03021223278817911 0.4211203673479611  0.2717088345055612 0.1087305735822701 0.420990084205413  0.2715394362594613 0.1088776666932577 0.5002784515057634  0.2743266904341904 0.03036134992979322 0.5002786293975617  0.3667637196963687 0.03189003515492627 0.4218531967253092  0.3650505992853115 0.110473399841048 0.4217201134418052  0.3648443212441538 0.1106172711088499 0.5002920284610943  0.3665551387081181 0.03203620452487986 0.500292317102582  0.4597679130425157 0.03262564869987398 0.422277522093876  0.4587337271437605 0.1111786677560934 0.4221596232108996  0.4585185145497994 0.1113016468035508 0.5003073203668948  0.4595418171255872 0.03275063293440318 0.5003070937717572  0.08589404154116662 0.1759100112380485 0.4185493522810393  0.08586026694528508 0.17598197227929 0.5002669220677268  0 0.1666666666666667 0.4166666666666667  0 0.1666666666666667 0.5  0.176706212588018 0.182445392399856 0.4199370096748348  0.1765990103961541 0.1825537714099319 0.5002485731407958  0.2693236265304157 0.1864473610357496 0.4210513947528734  0.2691530776857138 0.1865728373667801 0.5002861650615069  0.3630325564687797 0.1883730954026688 0.4217760756965702  0.3628216468523327 0.1884953279440905 0.5002990714759593  0.4571892988143708 0.1892051276368561 0.422205905709186  0.4569690793159691 0.1893104607107729 0.5003151518087893  0.08558733021369086 0.2563808587335178 0.4186240730277305  0.08555470592346776 0.2564422983344774 0.5002709983443361  0 0.25 0.4166666666666667  0 0.25 0.5  0.175435903493159 0.2611159380531652 0.4200478622444938  0.1753287363713874 0.2612004229548006 0.5002491768112834  0.2676650619033852 0.264340230359372 0.421170866120897  0.2674896238565792 0.2644366601858409 0.5002819388501929  0.3613856846676327 0.2661336139489843 0.4218896613191784  0.3611668632445223 0.2662272306579563 0.5002945477399257  0.455744693856946 0.2669767560841356 0.4223022696164438  0.4555153876210025 0.2670577927123346 0.5003116703386908  0.5503554049241008 0.2672407142504819 0.4225000069608542  0.550139006924052 0.2673042633948191 0.5003276919442069  0.08542867657083061 0.3373984368081643 0.4187024093816611  0.08539708430893544 0.3374417058197339 0.5002751821105205  0 0.3333333333333333 0.4166666666666667  0 0.3333333333333333 0.5  0.1748482272948942 0.3404344855674545 0.4201562370687288  0.1747408378328742 0.340490563748983 0.5002465826813358  0.2665394603998137 0.3427415718825788 0.5002786930053744  0.3600331831799415 0.3440822330211653 0.5002916757323508  0.4544057854623185 0.3447554076856294 0.5003091148104613  0.549163869861802 0.3449984615654443 0.5003254905917828  0.08535174259586724 0.4187586696172041 0.4187586696172041  0.08532069345545158 0.4187809421133006 0.5002784606438877  0 0.4166666666666667 0.4166666666666667  0 0.4166666666666667 0.5  0.1744356294580552 0.4202588741114603 0.5002445630771875  0.2660046564812545 0.4214119204087992 0.5002763114373967  0.0852897974413955 0.5002794070786529 0.5002794070786529  0 0.5 0.5  0.174326833289322 0.5002418452954032 0.5002418452954032  0.08672065030224599 0.09728712636195497 0.5820227397737651  0.09247323874118273 0.02035477839358732 0.5819279406151147  0 0 0.5833333333333334  0 0.08333333333333333 0.5833333333333334  0.1787273938891848 0.1045871507381362 0.5806126778581348  0.183129052115428 0.02672064164288986 0.5805195596752273  0.2716538831055628 0.1087449297875225 0.5795716114040897  0.2744357317315974 0.03022928292481309 0.5794433459923335  0.3649947163529723 0.110483191379513 0.5788665939089912  0.3667109732155091 0.03190169290261341 0.5787358329158033  0.4586790699193255 0.111183736386977 0.5784563173947253  0.4597138331716187 0.03263173345067544 0.5783395605758619  0.5532180005907251 0.03287437208344431 0.578163842957271  0.5526109199241183 0.1113296917283048 0.5782570211425273  0.08587014644117866 0.1759339670177341 0.582001939080521  0 0.1666666666666667 0.5833333333333334  0.1766605392031236 0.1824581939003054 0.5805674895483734  0.2692723560106804 0.1864557243312419 0.5795267680081019  0.3629757441013551 0.1883773379671092 0.5788249301372943  0.4571318052186834 0.1892066350391801 0.5784251167278955  0.5514738110215507 0.189405807654914 0.5782352476105852  0.08556339085610953 0.256401960942125 0.5819364557485057  0 0.25 0.5833333333333334  0.1753899060715681 0.2611243164062292 0.5804585213253747  0.2676118879991275 0.2643457799377156 0.5793996079231439  0.3613272475637253 0.2661358077238622 0.5787023593810171  0.4556860674151906 0.2669767825071604 0.5783213320399594  0.5502984287793288 0.2672391862768153 0.5781548322974028  0.08540539470028341 0.3374136579785965 0.5818677053065106  0 0.3333333333333333 0.5833333333333334  0.1748024192532824 0.3404383111123224 0.5803459446565188  0.2666650557320898 0.3426802389837414 0.5792704883406949  0.3601998621996649 0.3440201648370497 0.5785765110334326  0.4545843531550164 0.3447000862670168 0.5782118715981418  0.5493314116885454 0.3449536458340577 0.5780681570483842  0.08532883220004493 0.4187659924004004 0.5818186773699879  0 0.4166666666666667 0.5833333333333334  0.1744974506088716 0.4202311361500534 0.5802662861894056  0.2661321713559607 0.4213799772343274 0.5791787405781791  0.3595392563958825 0.422090387787408 0.5784853270419756  0.4539085526517902 0.4224758737298447 0.5781313468264193  0.5487092438106792 0.4226362926262031 0.5780034003644446  0.08529774974588181 0.5002773532366914 0.5817984975230311  0 0.5 0.5833333333333334  0.1743885101769359 0.5002382114512264 0.5802345413655845  0.2659500893312697 0.5002702066437181 0.5791427164572006  0.3593086135713308 0.5002813396165136 0.5784495499942306  0.08530545283273193 0.581809370182286 0.581809370182286  0.1744496372598796 0.5802549697570001 0.5802549697570001  0.2660770327983937 0.5791680913199904 0.5791680913199904  0.08678143883676766 0.0971201338330452 0.6636994547894104  0.09247881383845004 0.02019171604314961 0.6635487823680012  0 0 0.6666666666666666  0 0.08333333333333333 0.6666666666666666  0.1789771671710605 0.1042531670326448 0.6608374310254145  0.1833237754361663 0.02638769748227727 0.6606578536842065  0.2720795220243432 0.1083368658391475 0.6587461152997888  0.2748432980202873 0.02981667509928855 0.6585138250693822  0.365517791149188 0.1100820360065051 0.6573779226138255  0.3672482702955483 0.03149426187321255 0.6571445422148757  0.459216224650202 0.1108396657800745 0.6565938922439861  0.4602836991893582 0.0322816096772644 0.6563889971200207  0.55310612574271 0.111062858363302 0.6562108754984987  0.5537528723800169 0.03260249537616888 0.6560491200969764  0.08592730653422224 0.1757667048569841 0.6636394140627003  0 0.1666666666666667 0.6666666666666666  0.1769128900721534 0.1821628409744669 0.6607162915326541  0.2697091887086379 0.186105105750914 0.6586174735838947  0.3635125868092361 0.1880326381135122 0.6572608126594611  0.4576802108338194 0.1889093493086078 0.6565032673021265  0.5519756695275001 0.1891737873192636 0.6561467573832952  0.08561648431162201 0.2562634707449131 0.6634904879868782  0 0.25 0.6666666666666666  0.1756412348627784 0.2608952597107863 0.6604769298350709  0.2680606394984321 0.2640787524298231 0.658346180061976  0.3618868517523671 0.2658729014052805 0.6570033827329015  0.4562610318207363 0.2667481679755457 0.6562881150208187  0.5508247134875561 0.2670589647069823 0.6559827297466311  0.08545629770474175 0.3373181462804541 0.6633436957273158  0 0.3333333333333333 0.6666666666666666  0.1750541431294402 0.3402851839149283 0.6602456804551521  0.267123857756466 0.342503508299897 0.6580815497472998  0.3607792011063903 0.3438457797976396 0.6567466927976211  0.4551839157447833 0.3445473880719305 0.656066875090029  0.5498820045587667 0.3448321723041531 0.6558093396422616  0.08537854161331855 0.4187158991625787 0.663241682357315  0 0.4166666666666667 0.6666666666666666  0.1747498919919429 0.4201535556294198 0.6600862647185094  0.2665972159138938 0.4212915380045578 0.657897406081195  0.3601308692908142 0.4220033641223389 0.6565651725154562  0.4545240643084162 0.4223996418698718 0.655907764767124  0.5492763437098414 0.4225754000333638 0.6556825715507861  0.08534690148377451 0.5002717992574834 0.6632006211023688  0 0.5 0.6666666666666666  0.1746411006183044 0.5002336347776586 0.6600253586314705  0.2664170658718072 0.500266900018436 0.6578277502934885  0.3599041754656621 0.5002791753211786 0.6564966620251631  0.4536641119751626 0.5002998360173971 0.5780998489504077  0.4542849776712077 0.5002987498113519 0.6558475984939647  0.5484781556202567 0.5003173944788619 0.5779779195999826  0.549051048755845 0.5003168790054856 0.655634321336372  0.08535449209379396 0.5818483851191644 0.6632243739077612  0 0.5833333333333334 0.6666666666666666  0.1747015731708169 0.5803232598778716 0.6600700739382155  0.2665415439874949 0.5792498234848581 0.6578823040312853  0.3594786248769517 0.57847555283706 0.57847555283706  0.3600697130088065 0.5785581453113297 0.6565523165175665  0.4538476358644684 0.5781235074099973 0.5781235074099973  0.4544629611298971 0.5781974109796972 0.6558975467885593  0.5486515919382955 0.5779971761929853 0.5779971761929853  0.549219016041795 0.5780568848029174 0.655674665219809  0.1749525096425256 0.6602135544640487 0.6602135544640487  0.26699
[...]
<PointData  Vectors="f_35"> 
<DataArray  type="Float64"  Name="f_35"  NumberOfComponents="3" format="ascii">0.0000000000000000e+00 0.0000000000000000e+00 0.0000000000000000e+00  0.0000000000000000e+00 0.0000000000000000e+00 0.0000000000000000e+00  -1.0327908653226399e-02 -2.7523040793870614e-02 -2.4835612831314042e-03  -4.4225622166043279e-03 -1.9500620583098156e-02 -2.6608885899220449e-03  0.0000000000000000e+00 0.0000000000000000e+00 0.0000000000000000e+00  -4.3773404356675753e-03 -1.9593657669493329e-02 -3.7363926915237020e-04  -1.0299415857789417e-02 -2.7616815794851351e-02 -3.2661660054194447e-04  0.0000000000000000e+00 0.0000000000000000e+00 0.0000000000000000e+00  0.0000000000000000e+00 0.0000000000000000e+00 0.0000000000000000e+00  -2.0887539214899963e-02 -3.7714348820457128e-02 -4.7436529752060393e-03  -1.5891686755669682e-02 -3.0082176526440300e-02 -4.7021116994532420e-03  -1.5755653849767504e-02 -3.0248820102854096e-02 -3.4591482686151460e-04  -2.0784224875075002e-02 -3.7885055701785346e-02 -3.5434488384222525e-04  -3.2001849527419267e-02 -4.3304378405693164e-02 -6.4182741022128084e-03  -2.8707479961988323e-02 -3.6333409468152007e-02 -6.2637660362674444e-03  -2.8501888673685943e-02 -3.6541714292038716e-02 -3.4517990427143511e-04  -3.1814830961255813e-02 -4.3519995744395322e-02 -3.4978562566952067e-04  -4.4333783296431992e-02 -4.6112847729523967e-02 -7.5062362199545809e-03  -4.2292953757866271e-02 -3.9164566965737301e-02 -7.3139759473855913e-03  -4.2053742662041163e-02 -3.9373991856279905e-02 -3.4155241719431036e-04  -4.4094728686597730e-02 -4.6330714273370335e-02 -3.4451420855598420e-04  -5.7592540192980192e-02 -4.7407770482646640e-02 -8.1104012025320395e-03  -5.6360127774313505e-02 -4.0377948422983707e-02 -7.9237036128469631e-03  -5.6122567407924040e-02 -4.0561838321774721e-02 -3.3257977835277096e-04  -5.7343992635776123e-02 -4.7599505045469885e-02 -3.3769396283808017e-04  -3.5254983401148757e-03 -1.3342585343663900e-02 -2.7761578615973993e-03  -3.4814147520170050e-03 -1.3438855003041128e-02 -3.7651689723287808e-04  0.0000000000000000e+00 0.0000000000000000e+00 0.0000000000000000e+00  0.0000000000000000e+00 0.0000000000000000e+00 0.0000000000000000e+00  -1.3577357500363903e-02 -2.2570905706737962e-02 -4.7681699580748357e-03  -1.3443709068405689e-02 -2.2719155213824303e-02 -3.1983223367028981e-04  -2.6048905916549511e-02 -2.8419947219935817e-02 -6.3570558056396734e-03  -2.5845365385220972e-02 -2.8595205444332996e-02 -3.4928537848227575e-04  -4.0031339141068933e-02 -3.1326791600267419e-02 -7.3878590097781038e-03  -3.9789907053008576e-02 -3.1502017682724016e-02 -3.4780955882669849e-04  -5.4634042537110884e-02 -3.2643219973162656e-02 -7.9782164449943814e-03  -5.4392760553248883e-02 -3.2798157097013503e-02 -3.3923333350889529e-04  -3.1546071523932159e-03 -9.3133808223698055e-03 -2.8908860303713244e-03  -3.1132947367016584e-03 -9.3975617787759765e-03 -3.7796256181972071e-04  0.0000000000000000e+00 0.0000000000000000e+00 0.0000000000000000e+00  0.0000000000000000e+00 0.0000000000000000e+00 0.0000000000000000e+00  -1.2130232230193681e-02 -1.6072070338431471e-02 -4.9307293788611005e-03  -1.2001351895106791e-02 -1.6188045785950424e-02 -3.1752681796326813e-04  -2.4189362969416588e-02 -2.0716797144710607e-02 -6.5342262518349268e-03  -2.3984998101047292e-02 -2.0850860362521869e-02 -3.4624614451769575e-04  -3.8189461557246965e-02 -2.3319291370097882e-02 -7.5426590264131800e-03  -3.7942543018676701e-02 -2.3452059722363937e-02 -3.3826498693274827e-04  -5.3036909059630280e-02 -2.4580619312122985e-02 -8.1091962184589306e-03  -5.2787758671855589e-02 -2.4698175818296798e-02 -3.3138449130410308e-04  -6.8241913689481973e-02 -2.5000297192836002e-02 -8.3680842445871349e-03  -6.8017436171929194e-02 -2.5095479720818503e-02 -3.2084879983887703e-04  -2.9651446299742263e-03 -5.9831947242615742e-03 -3.0042808999252175e-03  -2.9266196554412973e-03 -6.0436399907629499e-03 -3.8304390763717577e-04  0.0000000000000000e+00 0.0000000000000000e+00 0.0000000000000000e+00  0.0000000000000000e+00 0.0000000000000000e+00 0.0000000000000000e+00  -1.1447763872036486e-02 -1.0334793425778286e-02 -5.0835030230298676e-03  -1.1322398576714162e-02 -1.0412123351818304e-02 -3.1247150078547741e-04  -2.2905837297703967e-02 -1.3631566088461158e-02 -3.3804775079821002e-04  -3.6672420926348197e-02 -1.5547990241361262e-02 -3.3065848338182004e-04  -5.1565305229897766e-02 -1.6520009902435726e-02 -3.2554685306203813e-04  -6.6967053917487640e-02 -1.6873071868050565e-02 -3.1506395318080835e-04  -2.8713713915599795e-03 -3.0834535487236142e-03 -3.0834535487236255e-03  -2.8344715999539167e-03 -3.1148520583317799e-03 -3.8674497800277404e-04  0.0000000000000000e+00 0.0000000000000000e+00 0.0000000000000000e+00  0.0000000000000000e+00 0.0000000000000000e+00 0.0000000000000000e+00  -1.0966772112690005e-02 -5.2245181061958699e-03 -3.0814914221958997e-04  -2.2294190867379434e-02 -6.8636843592706880e-03 -3.3335281446228871e-04  -2.7981318821079910e-03 -3.8797085569857565e-04 -3.8797085569858329e-04  0.0000000000000000e+00 0.0000000000000000e+00 0.0000000000000000e+00  -1.0842917630319264e-02 -3.0425464681526124e-04 -3.0425464681525848e-04  -4.3947688918285687e-03 -1.9535588064099305e-02 1.8918476129819188e-03  -1.0296066798557156e-02 -2.7567717902392846e-02 1.8109728420637205e-03  0.0000000000000000e+00 0.0000000000000000e+00 0.0000000000000000e+00  0.0000000000000000e+00 0.0000000000000000e+00 0.0000000000000000e+00  -1.5842469750545381e-02 -3.0110353207918751e-02 4.0042163483931812e-03  -2.0849293856210777e-02 -3.7752270297887608e-02 4.0266601966344635e-03  -2.8657542134965620e-02 -3.6362523576271462e-02 5.5691887028538698e-03  -3.1963869334303736e-02 -4.3339936765865485e-02 5.7125727199174485e-03  -4.2248394213467225e-02 -3.9189746245173962e-02 6.6291858936142981e-03  -4.4295287561958802e-02 -4.6143549906559701e-02 6.8122447328123935e-03  -5.6322985710953351e-02 -4.0396902071271168e-02 7.2585785213562983e-03  -5.7555973097093413e-02 -4.7431305596940046e-02 7.4319985187085739e-03  -7.1449658893305110e-02 -4.7917033562489469e-02 7.7247896085710184e-03  -7.0732016691580052e-02 -4.0734322740058213e-02 7.5827846930894890e-03  -3.4977417127649802e-03 -1.3374336917160464e-02 2.0040171465126044e-03  0.0000000000000000e+00 0.0000000000000000e+00 0.0000000000000000e+00  -1.3531284555665152e-02 -2.2590921656978402e-02 4.1234462360435079e-03  -2.6003851108529274e-02 -2.8436773897066323e-02 5.6527391976035190e-03  -3.9986515965650289e-02 -3.1340741335992128e-02 6.6907478416595462e-03  -5.4594596863957241e-02 -3.2654208072522839e-02 7.3010707054183910e-03  -6.9482470489076645e-02 -3.3031156830939136e-02 7.6122801068898406e-03  -3.1272852810853430e-03 -9.3416561380190773e-03 2.1153998063191135e-03  0.0000000000000000e+00 0.0000000000000000e+00 0.0000000000000000e+00  -1.2085530856271152e-02 -1.6084526038937053e-02 4.2900466812782869e-03  -2.4142943772722792e-02 -2.0727640817441932e-02 5.8355363219946112e-03  -3.8142636711192619e-02 -2.3327590685346636e-02 6.8652056973867465e-03  -5.2996326006492060e-02 -2.4586695523653661e-02 7.4487248015586843e-03  -6.8209082362526416e-02 -2.5004350361812793e-02 7.7293196040067059e-03  -2.9394734336439660e-03 -6.0043474187687134e-03 2.2173874471024635e-03  0.0000000000000000e+00 0.0000000000000000e+00 0.0000000000000000e+00  -1.1404625108105510e-02 -1.0340554548413761e-02 4.4519445922739367e-03  -2.3064239734719244e-02 -1.3548315379538789e-02 6.0192349422578152e-03  -3.6876747706100138e-02 -1.5463819864844111e-02 7.0436830691406023e-03  -5.1780855492171284e-02 -1.6444422732315483e-02 7.6051680115012859e-03  -6.7166949415637334e-02 -1.6810818328516497e-02 7.8566087913311908e-03  -2.8466515130423720e-03 -3.0940018941238577e-03 2.2883189093352071e-03  0.0000000000000000e+00 0.0000000000000000e+00 0.0000000000000000e+00  -1.1047749629229364e-02 -5.1866447857481877e-03 4.5642879907767985e-03  -2.2452729829219351e-02 -6.8205578928170725e-03 6.1476978563331699e-03  -3.6133501029464964e-02 -7.8190577734466461e-03 7.1720533817585521e-03  -5.1036614609776099e-02 -8.3524440952957215e-03 7.7207405707606048e-03  -6.6500804035343128e-02 -8.5622525091378354e-03 7.9523420085209854e-03  -2.8098859705930047e-03 -3.8555438055508183e-04 2.3170305877807393e-03  0.0000000000000000e+00 0.0000000000000000e+00 0.0000000000000000e+00  -1.0923119482446956e-02 -2.9988271849589956e-04 4.6084745595386199e-03  -2.2247812958256515e-02 -3.2523482606355565e-04 6.1980744200813747e-03  -3.5879485305225271e-02 -3.1518989305957188e-04 7.2229930271269288e-03  -2.8214088303655576e-03 2.3009795611468372e-03 2.3009795611468385e-03  -1.1002991814427593e-02 4.5794192983859066e-03 4.5794192983859110e-03  -2.2405441667909178e-02 6.1627760628780387e-03 6.1627760628780309e-03  -4.4829622587670851e-03 -1.9319659391182350e-02 4.2701358278779264e-03  -1.0325733854666152e-02 -2.7371325516084715e-02 4.0573087555312590e-03  0.0000000000000000e+00 0.0000000000000000e+00 0.0000000000000000e+00  0.0000000000000000e+00 0.0000000000000000e+00 0.0000000000000000e+00  -1.6182168298873173e-02 -2.9660505155852696e-02 8.5414572767595672e-03  -2.1118446638761328e-02 -3.7304681775239157e-02 8.5827398332373201e-03  -2.9205517637438581e-02 -3.5799251948104606e-02 1.1629047491742817e-02  -3.2486155852797308e-02 -4.2762028894209651e-02 1.1894305834833530e-02  -4.2894052875248653e-02 -3.8626171746640119e-02 1.3665403709993064e-02  -4.4954822689345059e-02 -4.5561501294463402e-02 1.3994240633677138e-02  -5.6961816887736758e-02 -3.9904647103612800e-02 1.4846181440578907e-02  -5.8228051220213406e-02 -4.6921941780359154e-02 1.5153691712553322e-02  -7.1298211620080723e-02 -4.0342962524744889e-02 1.5444545379746473e-02  -7.2053857043951078e-02 -4.7511479648440089e-02 1.5694196294503231e-02  -3.5801529564444393e-03 -1.3147394923536358e-02 4.5219759937550003e-03  0.0000000000000000e+00 0.0000000000000000e+00 0.0000000000000000e+00  -1.3866883564131464e-02 -2.2188993719104447e-02 8.7893119519660123e-03  -2.6554868155813992e-02 -2.7955330890399647e-02 1.1839965711705031e-02  -4.0639842470742760e-02 -3.0861433168028165e-02 1.3833060923434086e-02  -5.5242001072784902e-02 -3.2234229955762216e-02 1.4969670370147882e-02  -7.0056163421469045e-02 -3.2695930812121736e-02 1.5532274503082852e-02  -3.2013000404917508e-03 -9.1491916117595103e-03 4.7628805571440138e-03  0.0000000000000000e+00 0.0000000000000000e+00 0.0000000000000000e+00  -1.2408607410033527e-02 -1.5770282687598124e-02 9.1452178918899930e-03  -2.4694345142576589e-02 -2.0361778088950885e-02 1.2230309208638410e-02  -3.8810873405192486e-02 -2.2964823364596893e-02 1.4196834467796075e-02  -5.3666898060695085e-02 -2.4267081075038780e-02 1.5274815839283884e-02  -6.8807507456470629e-02 -2.4747213729941517e-02 1.5769936001166173e-02  -3.0078000946004890e-03 -5.8699266577316575e-03 4.9771986325935465e-03  0.0000000000000000e+00 0.0000000000000000e+00 0.0000000000000000e+00  -1.1719272497896885e-02 -1.0129379516678435e-02 9.4736441495063932e-03  -2.3616197419588498e-02 -1.3306585464236039e-02 1.2601960084139793e-02  -3.7557907463638511e-02 -1.5224748621758648e-02 1.4557674339527395e-02  -5.2472898959360789e-02 -1.6232860622094156e-02 1.5590083759521601e-02  -6.7789623756807457e-02 -1.6639334422676882e-02 1.6023445700457127e-02  -2.9116139702340428e-03 -3.0233700543081618e-03 5.1223713929345310e-03  0.0000000000000000e+00 0.0000000000000000e+00 0.0000000000000000e+00  -1.1357772307592067e-02 -5.0798495105981072e-03 9.6955234147776438e-03  -2.3004873555937777e-02 -6.7003220413168916e-03 1.2857827301410966e-02  -3.6822339386540684e-02 -7.7008561555974749e-03 1.4812521294901055e-02  -5.1742343378790891e-02 -8.2479979278901536e-03 1.5817926797237251e-02  -6.7139815624100707e-02 -8.4773500708456694e-03 1.6210220138174872e-02  -2.8733970699714468e-03 -3.7855274172880938e-04 5.1801498349572312e-03  0.0000000000000000e+00 0.0000000000000000e+00 0.0000000000000000e+00  -1.1231262128696833e-02 -2.9496223174775398e-04 9.7797062008079701e-03  -2.2799586545107966e-02 -3.2237775948805978e-04 1.2954807779482592e-02  -3.6570493510824705e-02 -3.1387662948858424e-04 1.4909758876160212e-02  -5.0774895120554719e-02 -3.1080563460549309e-04 7.7667467641424071e-03  -5.1485144561313902e-02 -3.1078273370823138e-04 1.5905638626570056e-02  -6.6262748641799971e-02 -3.0129144384817243e-04 7.9908702321526449e-03  -6.6907587913832972e-02 -3.0184125673679780e-04 1.6283034660828734e-02  -2.8851337408691718e-03 2.2442105564351210e-03 5.1460402682648810e-03  0.0000000000000000e+00 0.0000000000000000e+00 0.0000000000000000e+00  -1.1311612702515480e-02 4.4826188293384797e-03 9.7173167044949521e-03  -2.2956191936059727e-02 6.0484391135632682e-03 1.2879840941483247e-02  -3.6085473434580746e-02 7.1871557023057446e-03 7.1871557023057324e-03  -3.6773236472862104e-02 7.0718299271292110e-03 1.4833637870200748e-02  -5.0994682445412845e-02 7.7341079322623347e-03 7.7341079322623008e-03  -5.1700199960467472e-02 7.6300097391128188e-03 1.5837027579329078e-02  -6.6468915217152119e-02 7.9640672911492124e-03 7.9640672911491708e-03  -6.7108663232799542e-02 7.8782981138956140e-03 1.6226865143967234e-02  -1.1623686676586012e-02 9.5167064322953989e-03 9.5167064322954111e-03  -2.3505591872563587e-02 1.2644573353500268e-02 1.2644573353500282e-02  -3.7452686799744062e-02 1.4598108019957819e-02 1.4598108019957833e-02  -5.2392369646367343e-02 1.5626576357478328e-02 1.5626576357478338e-02  -6.7733280203784954e-02 1.6055049524113102e-02 1.6055049524113078e-02  -4.6915574514223542e-03 -1.8927147270389331e-02 6.9598894136231231e-03  -1.0457272314265808e-02 -2.7003160157515894e-02 6.6084471539400958e-03  0.0000000000000000e+00 0.0000000000000000e+00 0.0000000000000000e+00  0.0000000000000000e+00 0.0000000000000000e+00 0.0000000000000000e+00  -1.6893204851162687e-02 -2.8884650163750150e-02 1.3496957301774514e-02  -2.1732089102395141e-02 -3.6507179647871681e-02 1.3516574197698396e-02  -3.0250111726728125e-02 -3.4873704973378522e-02 1.7971780474805337e-02  -3.3503656870811936e-02 -4.1788540309879350e-02 1.8286280045390565e-02  -4.4035990231699525e-02 -3.7741994730094555e-02 2.0802301644433047e-02  -4.6124762603530295e-02 -4.4630729286028785e-02 2.1184924361687889e-02  -5.8028932080052741e-02 -3.9162079305879484e-02 2.2399031661221754e-02  -5.9347690330018313e-02 -4.6140229110530000e-02 2.2749386107150667e-02  -7.2203426025840886e-02 -3.9771627746682921e-02 2.3201419277331922e-02  -7.3015747863257305e-02 -4.6909491578087492e-02 2.3480790532389603e-02  -3.7722286220431590e-03 -1.2755874940849498e-02 7.4035533640320270e-03  0.0000000000000000e+00 0.0000000000000000e+00 0.0000000000000000e+00  -1.4563482286329817e-02 -2.1530447726590629e-02 1.3949049201333316e-02  -2.7604840411374332e-02 -2.7196147067282184e-02 1.8392820711449185e-02  -4.1801327542670470e-02 -3.0133156898525627e-02 2.1149019900792966e-02  -5.6330563153649080e-02 -3.1617305944031254e-02 2.2658774460154029e-02  -7.0978903340686655e-02 -3.2217763283890817e-02 2.3385902552519426e-02  -3.3751096350388868e-03 -8.8351733063943682e-03 7.7985275223632928e-03  0.0000000000000000e+00 0.0000000000000000e+00 0.0000000000000000e+00  -1.3079393150984235e-02 -1.5281173643213094e-02 1.4535803961006172e-02  -2.5746630336109615e-02 -1.9807880905505004e-02 1.9038144239180120e-02  -4.0001695975003235e-02 -2.2431299566546273e-02 2.1741382497742795e-02  -5.4796399130450348e-02 -2.3809985471983867e-02 2.3147570521265808e-02  -6.9770666991844824e-02 -2.4388628421196532e-02 2.3759209768255012e-02  -3.1687417569072522e-03 -5.6591212723520095e-03 8.1270349052107432e-03  0.0000000000000000e+00 0.0000000000000000e+00 0.0000000000000000e+00  -1.2371845918902202e-02 -9.8136701487331161e-03 1.5041017106049241e-02  -2.4667870061303124e-02 -1.2953249332687260e-02 1.9614850879835423e-02  -3.8769733037422524e-02 -1.4884190632004071e-02 2.2300353318953709e-02  -5.3636544274809440e-02 -1.5938546011717982e-02 2.3631650662489196e-02  -6.8789827249251631e-02 -1.6405974233210448e-02 2.4143217578107987e-02  -3.0655508159037324e-03 -2.9156230033999288e-03 8.3403089165643898e-03  0.0000000000000000e+00 0.0000000000000000e+00 0.0000000000000000e+00  -1.2000362252450061e-02 -4.9257869206992492e-03 1.5369693380997942e-02  -2.4055062526552075e-02 -6.5305379797841664e-03 2.0000378316041942e-02  -3.8045426121551221e-02 -7.5384872349579359e-03 2.2685321599217215e-02  -5.2926594510684044e-02 -8.1076628593405847e-03 2.3973832495464482e-02  -6.8163939205698743e-02 -8.3657038104750867e-03 2.4420932999024949e-02  -3.0247754332246258e-03 -3.6913976036854042e-04 8.4235944507736263e-03  0.0000000000000000e+00 0.0000000000000000e+00 0.0000000000000000e+00  -1.1870002546556929e-02 -2.9193111983729096e-04 1.5491236231378635e-02  -2.3848289794845400e-02 -3.2317256606193093e-04 2.0143131242671551e-02  -3.7796358057707195e-02 -3.1790364683450975e-04 2.2829019854164759e-02  -5.2675838703448483e-02 -3.1620991876423957e-04 2.4103323787862761e-02  -6.7939868624493957e-02 -3.0737109825898685e-04 2.4527602116893796e-02  -3.0377327302358445e-03 2.1550258807413150e-03 8.3739086496661674e-03  0.0000000000000000e+00 0.0000000000000000e+00 0.0000000000000000e+00  -1.1951819613452364e-02 4.3348925171461036e-03 1.5397306384293680e-02  -2.4003541876344417e-02 5.8774525390143835e-03 2.0028908435700092e-02  -3.7994179383640150e-02 6.9020905033108622e-03 2.2712762955636605e-02  -5.2883782686443739e-02 7.4795307691483421e-03 2.3999211292710432e-02  -6.8133309271862744e-02 7.7561156741278855e-03 2.4442833554012968e-02  -3.1092644355085108e-03 4.8318784103983754e-03 8.1942069350674236e-03  -1.2271125058523151e-02 9.2081793697348108e-03 1.5094621281315135e-02  -2.4551751051382999e-02 1.2291354331080005e-02 1.9670542741063671e-02  -3.8661178284716290e-02 1.4252225050381739e-02 2.2354350746247361e-02  -5.3555941593869873e-02 1.5324029291188392e-02 2.3681310424156887e-02  -6.8735568207491091e-02 1.5812462198506221e-02 2.4185580847815694e-02  -5.1501794546057770e-03 -1.8323627925773751e-02 1.0309731389306047e-02  -1.0828088775100135e-02 -2.6418721703046318e-02 9.7610629050974493e-03  0.0000000000000000e+00 0.0000000000000000e+00 0.0000000000000000e+00  0.0000000000000000e+00 0.0000000000000000e+00 0.0000000000000000e+00  -1.8240276594970142e-02 -2.7784743573224403e-02 1.9167802433980047e-02  -2.2959248120496396e-02 -3.5305756320944508e-02 1.9031712619630266e-02  -3.1966255695414794e-02 -3.3684753855888143e-02 2.4680830788657886e-02  -3.5189711767629542e-02 -4.0485842110064597e-02 2.4887531488904154e-02  -4.5719044225023528e-02 -3.6691456886071720e-02 2.7994595031873942e-02  -4.7841545715319851e-02 -4.3482121131867300e-02 2.8273579509738161e-02  -5.9471263874970724e-02 -3.8336839761761957e-02 2.9832272044620155e-02  -6.0849335227055254e-02 -4.5237984126352791e-02 3.0091383591425321e-02  -7.3349868712218713e-02 -3.9168191088456102e-02 3.0771001817738598e-02  -7.4224277316628895e-02 -4.6248490801085958e-02 3.0976534805145919e-02  -4.1939844167443565e-03 -1.2219541111883352e-02 1.1013083923199472e-02  0.0000000000000000e+00 0.0000000000000000e+00 0.0000000000000000e+00  -1.5872793007809253e-02 -2.0686587717821243e-02 1.9941859450428572e-02  -2.9334814884500796e-02 -2.6290207269187717e-02 2.5435952401692472e-02  -4.3525656937571128e-02 -2.9319945158592903e-02 2.8611930799716571e-02  -5.7811598707330505e-02 -3.0967792390594773e-02 3.0287298865204027e-02  -7.2153010566472886e-02 -3.1737363607771282e-02 3.1088515667979981e-02  -3.7563426594840947e-03 -8.4425200514753156e-03 1.1566883563672567e-02  0.0000000000000000e+00 0.0000000000000000e+00 0.0000000000000000e+00  -1.4339135346272047e-02 -1.4704939552344675e-02 2.0796439364165135e-02  -2.7484488699154524e-02 -1.9193991574345714e-02 2.6384568265513213e-02  -4.1771334106758172e-02 -2.1873013974106969e-02 2.9466132548274314e-02  -5.6331705831679887e-02 -2.3355339516411416e-02 3.0976304347334008e-02  -7.0992395943609218e-02 -2.4046786844835310e-02 3.1603299062220411e-02  -3.5272264765008002e-03 -5.4104149465435333e-03 1.1985757871986372e-02  0.0