<?xml version="1.0"?>
<VTKFile type="UnstructuredGrid"  version="0.1"  >
<UnstructuredGrid>
<Piece  NumberOfPoints="613" NumberOfCells="2477">
<Points>
<DataArray  type="Float64"  NumberOfComponents="3"  format="ascii">0 0.4166666666666667 0.4166666666666667  0 0.5 0.4166666666666667  0 0.5 0.5  0.0852897974413955 0.5002794070786529 0.5002794070786529  0.08529774974588182 0.5817984975230311 0.5002773532366914  0 0.5833333333333334 0.5  0.08530545283273193 0.581809370182286 0.581809370182286  0 0.5 0.5833333333333334  0 0.5833333333333334 0.5833333333333334  0.1744496372598796 0.5802549697570001 0.5802549697570001  0.08535449209379398 0.6632243739077612 0.5818483851191644  0 0.6666666666666666 0.5833333333333334  0.1747015731708169 0.6600700739382156 0.5803232598778716  0.08535449209379396 0.5818483851191644 0.6632243739077612  0 0.5833333333333334 0.6666666666666666  0.0854042326505503 0.6633088263805331 0.6633088263805331  0 0.6666666666666666 0.6666666666666666  0.1749525096425256 0.6602135544640487 0.6602135544640487  0.2660770327983937 0.5791680913199904 0.5791680913199904  0.2665415439874949 0.6578823040312853 0.579249823484858  0.2669994148216062 0.6580521899617685 0.6580521899617685  0.3594786248769517 0.57847555283706 0.57847555283706  0.3600697130088065 0.6565523165175665 0.5785581453113297  0.3606482007842814 0.6567221203093229 0.6567221203093229  0.4538476358644684 0.5781235074099973 0.5781235074099973  0.454462961129897 0.6558975467885593 0.5781974109796972  0.4550624617774666 0.6560475730456955 0.6560475730456955  0.5486515919382955 0.5779971761929853 0.5779971761929853  0.549219016041795 0.655674665219809 0.5780568848029174  0.5497705683009921 0.6557946023270996 0.6557946023270996  0.08547633863765042 0.7443480288623905 0.5819084727975148  0.08552835937572861 0.7444760667495721 0.6634412770330183  0 0.75 0.5833333333333334  0 0.75 0.6666666666666666  0.1752397080843067 0.7394526641249249 0.5804256056230352  0.1754898742312311 0.7396717535882152 0.6604305096248305  0.2674418151960241 0.7362467814586706 0.5793708219132901  0.2678893626066812 0.7365070101444294 0.6583049839278028  0.361132185967398 0.7344377144377627 0.5786791193974713  0.3616910944180069 0.7346961466248559 0.6569705155149659  0.4555046471153562 0.7336165837935384 0.578303988334364  0.4560802439230778 0.7338424197068356 0.6562629479524938  0.550135099612816 0.7333800375723686 0.5781417331985551  0.5506633616131067 0.7335585826241509 0.6559637893442229  0.08576876347093013 0.8249323101538769 0.5819657438922464  0.08582555316601871 0.825090369262422 0.6635769992710635  0 0.8333333333333334 0.5833333333333334  0 0.8333333333333334 0.6666666666666666  0.1762783294512811 0.8181441663109328 0.5805267329491024  0.1765308566778994 0.8184285568115938 0.6606555567060785  0.2689481825780033 0.8141745337297566 0.5794926656168489  0.269384895992062 0.8145181836840858 0.6585678224767343  0.3627136069047687 0.8121728633964052 0.5787999320803895  0.3632508399633143 0.812513194110437 0.6572233532618035  0.4569116939057826 0.811366346146294 0.5784085115364558  0.4574620000811837 0.8116610015543457 0.6564762207080262  0.5512820997151588 0.811198243435109 0.5782231654450279  0.5517871371018972 0.8114288399214534 0.6561266504242282  0.08666918744515671 0.9043033403017783 0.5819956113969144  0.08673571595176371 0.9044668821429105 0.6636551701976697  0 0.9166666666666666 0.5833333333333334  0 0.9166666666666666 0.6666666666666666  0.1784646287616699 0.8959112221688054 0.580588366161948  0.1787151687779978 0.8962392624471895 0.6607946001423898  0.2713792427478269 0.8918892277572456 0.5795600279100901  0.2718004494084027 0.8922931405432695 0.6587176031001143  0.3647573763969321 0.8900450748664526 0.5788632708309162  0.3652757123558701 0.8904442226474628 0.6573556412969335  0.4584646119888094 0.8893756328082327 0.5784579944342075  0.4589996695605389 0.8897189466045989 0.6565761031885102  0.5523990986726134 0.8892786645891205 0.5782580614216907  0.5528948225311819 0.8895454520839223 0.6561950288920905  0.09009658170285324 0.9811116099240046 0.5819611393459844  0.09011870407817052 0.9812683881461687 0.6635634361973417  0 1 0.5833333333333334  0 1 0.6666666666666666  0.1830369525394547 0.9737625441475743 0.5804733914596333  0.1832380548294378 0.9740923844582158 0.6605893445316268  0.2743334269652714 0.9702609792855363 0.5794460068629894  0.2747334317234829 0.9706696805546089 0.6584977985045146  0.3665994166560831 0.9686037835559582 0.5787442963708046  0.3671268676399406 0.9690091395213059 0.6571295063949429  0.4595300541979479 0.9679364549803499 0.5783532032315297  0.4600942665146884 0.9682856895588942 0.6563767351828097  0.5529878408179838 0.9677489486622218 0.5781730197944671  0.5535213756951769 0.9680208311520482 0.6560350023749222  0.08552835937572861 0.6634412770330183 0.7444760667495721  0 0.5833333333333334 0.75  0 0.6666666666666666 0.75  0.1754898742312311 0.6604305096248305 0.7396717535882152  0.08565696495506649 0.7446853435829662 0.7446853435829662  0 0.75 0.75  0.1760263477790454 0.7400140763438127 0.7400140763438127  0.2687622207891131 0.7369040841982502 0.7369040841982502  0.2678893626066811 0.6583049839278028 0.7365070101444294  0.3627024652987206 0.735080871830756 0.735080871830756  0.3616910944180068 0.6569705155149659 0.7346961466248558  0.4570609951638918 0.7341706422817714 0.7341706422817714  0.4560802439230778 0.6562629479524938 0.7338424197068356  0.5515213631545103 0.7338125731667453 0.7338125731667453  0.5506633616131067 0.6559637893442229 0.7335585826241509  0.08596241192162035 0.8253633152443478 0.7449210015643358  0 0.8333333333333334 0.75  0.1770695389146944 0.8188931296011316 0.7403988832984064  0.2702364315075435 0.8150610726523523 0.7373433060676857  0.3642239978072249 0.8130330229543303 0.7354911058548509  0.4584010559704182 0.8120975905265043 0.7345076263047406  0.5526088020890381 0.8117616743327665 0.734064274268927  0.08688893263488338 0.9047622304050593 0.7450906826003156  0 0.9166666666666666 0.75  0.1792462863426293 0.8967979781536942 0.7406807290089664  0.2726216258281042 0.8929536478064897 0.7376345028822106  0.366215356010095 0.8910707055676282 0.735737050429932  0.4599134140221287 0.8902386955187718 0.7346891763944673  0.5537019375592079 0.8899371749756821 0.7341869953249669  0.09019907549085981 0.9815472333820929 0.7449713635345453  0 1 0.75  0.1836927562450708 0.974662105662957 0.7404302988715248  0.2755275872691084 0.971351121695009 0.7373678389231879  0.3680887512284683 0.9696568451964026 0.7354658129297457  0.4610583201159529 0.96882294840711 0.7344531148098346  0.5543887879589182 0.9684257796701186 0.7340004115657663  0.08582555316601873 0.6635769992710635 0.825090369262422  0 0.6666666666666666 0.8333333333333334  0.08596241192162037 0.7449210015643358 0.8253633152443478  0 0.75 0.8333333333333334  0.1770695389146944 0.7403988832984064 0.8188931296011316  0.1765308566778994 0.6606555567060785 0.8184285568115938  0.2702364315075435 0.7373433060676857 0.8150610726523523  0.269384895992062 0.6585678224767343 0.8145181836840858  0.3642239978072249 0.7354911058548508 0.8130330229543304  0.3632508399633144 0.6572233532618035 0.812513194110437  0.4584010559704183 0.7345076263047406 0.8120975905265043  0.4574620000811837 0.6564762207080264 0.8116610015543457  0.5526088020890381 0.734064274268927 0.8117616743327665  0.5517871371018973 0.6561266504242282 0.8114288399214533  0.08628464075246663 0.8257095417400865 0.8257095417400865  0 0.8333333333333334 0.8333333333333334  0.1781194730076272 0.8194710584351986 0.8194710584351986  0.2716791329685687 0.8157076191685726 0.8157076191685727  0.3656947603398469 0.8136186515420598 0.8136186515420598  0.4596906246743006 0.8125656350745591 0.8125656350745591  0.5536561065270588 0.8121033836830295 0.8121033836830295  0.08723850711197668 0.9051874108413351 0.8260342988464249  0 0.9166666666666666 0.8333333333333334  0.1802889075753681 0.8975644680499665 0.8199931063960223  0.2740213777574975 0.8937964971081596 0.8162151274631815  0.367641305292784 0.8918143352278503 0.8140290317677482  0.4611709943806189 0.8908194603842741 0.8128608695140471  0.5547329006261552 0.8903535349317806 0.8123003190688459  0.09044906311491066 0.981953737931111 0.825958054301974  0 1 0.8333333333333334  0.1846557907514268 0.9754835273012384 0.8198046909910068  0.2769155553473236 0.9722613843380674 0.8160245607072544  0.369555268535381 0.970457560171094 0.8138235331962769  0.462381582806244 0.9694460084728872 0.8126803176425721  0.555490878454118 0.9688719577781036 0.8121580053154833  0.08688893263488338 0.7450906826003156 0.9047622304050593  0 0.75 0.9166666666666666  0.1792462863426293 0.7406807290089664 0.8967979781536942  0.2726216258281042 0.7376345028822106 0.8929536478064897  0.3662153560100949 0.735737050429932 0.8910707055676282  0.3652757123558701 0.6573556412969335 0.8904442226474627  0.4599134140221287 0.7346891763944673 0.8902386955187718  0.458999669560539 0.6565761031885102 0.8897189466045989  0.5537019375592079 0.7341869953249669 0.889937174975682  0.5528948225311819 0.6561950288920905 0.8895454520839223  0.08723850711197667 0.8260342988464249 0.9051874108413351  0 0.8333333333333334 0.9166666666666666  0.1802889075753681 0.8199931063960223 0.8975644680499664  0.2740213777574974 0.8162151274631815 0.8937964971081596  0.367641305292784 0.8140290317677482 0.8918143352278503  0.4611709943806189 0.8128608695140471 0.890819460384274  0.5547329006261552 0.8123003190688459 0.8903535349317806  0.08825963897951808 0.9057593909523021 0.9057593909523021  0 0.9166666666666666 0.9166666666666666  0.1824117989621176 0.898405583659624 0.898405583659624  0.2763064148844452 0.8945724653101766 0.8945724653101766  0.3695379010055078 0.8924143714741049 0.8924143714741049  0.4626265395197153 0.8912399499710933 0.8912399499710933  0.555805416872221 0.8906302148966223 0.8906302148966223  0.09132372462469567 0.9825529205922744 0.9059766464299566  0 1 0.9166666666666666  0.1867517669420705 0.9765214328915599 0.898512
[...]
<PointData  Vectors="f_35"> 
<DataArray  type="Float64"  Name="f_35"  NumberOfComponents="3" format="ascii">0.0000000000000000e+00 0.0000000000000000e+00 0.0000000000000000e+00  0.0000000000000000e+00 0.0000000000000000e+00 0.0000000000000000e+00  0.0000000000000000e+00 0.0000000000000000e+00 0.0000000000000000e+00  -2.7981318821079910e-03 -3.8797085569857565e-04 -3.8797085569858329e-04  -2.8098859705930099e-03 2.3170305877807302e-03 -3.8555438055507788e-04  0.0000000000000000e+00 0.0000000000000000e+00 0.0000000000000000e+00  -2.8214088303655576e-03 2.3009795611468372e-03 2.3009795611468385e-03  0.0000000000000000e+00 0.0000000000000000e+00 0.0000000000000000e+00  0.0000000000000000e+00 0.0000000000000000e+00 0.0000000000000000e+00  -1.1002991814427593e-02 4.5794192983859066e-03 4.5794192983859110e-03  -2.8851337408691688e-03 5.1460402682648575e-03 2.2442105564351271e-03  0.0000000000000000e+00 0.0000000000000000e+00 0.0000000000000000e+00  -1.1311612702515496e-02 9.7173167044949417e-03 4.4826188293384988e-03  -2.8851337408691718e-03 2.2442105564351210e-03 5.1460402682648810e-03  0.0000000000000000e+00 0.0000000000000000e+00 0.0000000000000000e+00  -2.9511986005106737e-03 5.0252698035410989e-03 5.0252698035411101e-03  0.0000000000000000e+00 0.0000000000000000e+00 0.0000000000000000e+00  -1.1623686676586012e-02 9.5167064322953989e-03 9.5167064322954111e-03  -2.2405441667909178e-02 6.1627760628780387e-03 6.1627760628780309e-03  -2.2956191936059699e-02 1.2879840941483223e-02 6.0484391135632665e-03  -2.3505591872563587e-02 1.2644573353500268e-02 1.2644573353500282e-02  -3.6085473434580746e-02 7.1871557023057446e-03 7.1871557023057324e-03  -3.6773236472862104e-02 1.4833637870200726e-02 7.0718299271291998e-03  -3.7452686799744062e-02 1.4598108019957819e-02 1.4598108019957833e-02  -5.0994682445412845e-02 7.7341079322623347e-03 7.7341079322623008e-03  -5.1700199960467492e-02 1.5837027579329095e-02 7.6300097391127954e-03  -5.2392369646367343e-02 1.5626576357478328e-02 1.5626576357478338e-02  -6.6468915217152119e-02 7.9640672911492124e-03 7.9640672911491708e-03  -6.7108663232799473e-02 1.6226865143967262e-02 7.8782981138955759e-03  -6.7733280203784954e-02 1.6055049524113102e-02 1.6055049524113078e-02  -3.0377327302358419e-03 8.3739086496661432e-03 2.1550258807413454e-03  -3.1092644355085056e-03 8.1942069350674097e-03 4.8318784103983867e-03  0.0000000000000000e+00 0.0000000000000000e+00 0.0000000000000000e+00  0.0000000000000000e+00 0.0000000000000000e+00 0.0000000000000000e+00  -1.1951819613452376e-02 1.5397306384293674e-02 4.3348925171461114e-03  -1.2271125058523163e-02 1.5094621281315133e-02 9.2081793697348317e-03  -2.4003541876344379e-02 2.0028908435700075e-02 5.8774525390143852e-03  -2.4551751051382999e-02 1.9670542741063654e-02 1.2291354331080013e-02  -3.7994179383640123e-02 2.2712762955636599e-02 6.9020905033108475e-03  -3.8661178284716345e-02 2.2354350746247455e-02 1.4252225050381723e-02  -5.2883782686443802e-02 2.3999211292710439e-02 7.4795307691483187e-03  -5.3555941593869894e-02 2.3681310424156887e-02 1.5324029291188401e-02  -6.8133309271862827e-02 2.4442833554012992e-02 7.7561156741278604e-03  -6.8735568207491271e-02 2.4185580847815746e-02 1.5812462198506197e-02  -3.3817012246480055e-03 1.2285763109734593e-02 2.0601582596107668e-03  -3.4622942329914507e-03 1.2069445260982036e-02 4.6143291855273282e-03  0.0000000000000000e+00 0.0000000000000000e+00 0.0000000000000000e+00  0.0000000000000000e+00 0.0000000000000000e+00 0.0000000000000000e+00  -1.3159977358848135e-02 2.1921706601215288e-02 4.1780594929020278e-03  -1.3492289759493906e-02 2.1534592163890781e-02 8.8674833938974656e-03  -2.5730162099797838e-02 2.7715277674573439e-02 5.6992401434152887e-03  -2.6279339672804609e-02 2.7243920316782407e-02 1.1913823660647221e-02  -3.9798696695893490e-02 3.0772718234922353e-02 6.7313357913931504e-03  -4.0452946200868277e-02 3.0299118187732108e-02 1.3898810697837287e-02  -5.4479178288344032e-02 3.2110654319224032e-02 7.3327717881270611e-03  -5.5130711197428559e-02 3.1692738167313793e-02 1.5026604600519603e-02  -6.9418130692094779e-02 3.2501304483935171e-02 7.6400047033411819e-03  -6.9998028272272222e-02 3.2165640122021749e-02 1.5581596718616442e-02  -4.4431018102408003e-03 1.7646761647522040e-02 1.9667368119026191e-03  -4.5364847359229687e-03 1.7434244205340278e-02 4.3956876229191049e-03  0.0000000000000000e+00 0.0000000000000000e+00 0.0000000000000000e+00  0.0000000000000000e+00 0.0000000000000000e+00 0.0000000000000000e+00  -1.5623880611247571e-02 2.9576507298581210e-02 4.0388309924949033e-03  -1.5962149829939425e-02 2.9137577486271344e-02 8.5746239292920391e-03  -2.8488595693878713e-02 3.5673529453427492e-02 5.5828351685477326e-03  -2.9031645240519897e-02 3.5118839438760777e-02 1.1670672621773773e-02  -4.2134239699816355e-02 3.8660071841618605e-02 6.6390219519517606e-03  -4.2777060203651768e-02 3.8099638355816853e-02 1.3712995405661513e-02  -5.6256664399608906e-02 3.9882350480704355e-02 7.2657403398686737e-03  -5.6896963905342574e-02 3.9389372048367510e-02 1.4894928696217703e-02  -7.0690434932288132e-02 4.0210371850890540e-02 7.5931035258540724e-03  -7.1261379763132696e-02 3.9816213755506015e-02 1.5492350050118668e-02  -7.8448761495628471e-03 2.6208526165949493e-02 1.7738154932299185e-03  -7.8789194711817116e-03 2.6019835312133924e-02 4.0348342542418482e-03  0.0000000000000000e+00 0.0000000000000000e+00 0.0000000000000000e+00  0.0000000000000000e+00 0.0000000000000000e+00 0.0000000000000000e+00  -2.0755424967774133e-02 3.7142618170986345e-02 4.0786823595830180e-03  -2.1028294889229728e-02 3.6703693853028713e-02 8.6374479835340506e-03  -3.1940282475331455e-02 4.2840149273099065e-02 5.7021821727452392e-03  -3.2454131025101682e-02 4.2270452219609338e-02 1.1915215613779531e-02  -4.4340410553036634e-02 4.5671129585262996e-02 6.8042534541573772e-03  -4.4991695869679195e-02 4.5091371263380323e-02 1.4036251370566570e-02  -5.7560270431994673e-02 4.6927570092247566e-02 7.4236518175570636e-03  -5.8230836984200472e-02 4.6416926737402386e-02 1.5201815786014006e-02  -7.1434205699289391e-02 4.7391953629788576e-02 7.7260279026917685e-03  -7.2042401225808281e-02 4.6983017343689662e-02 1.5746698750157096e-02  -3.1092644355085108e-03 4.8318784103983754e-03 8.1942069350674236e-03  0.0000000000000000e+00 0.0000000000000000e+00 0.0000000000000000e+00  0.0000000000000000e+00 0.0000000000000000e+00 0.0000000000000000e+00  -1.2271125058523151e-02 9.2081793697348108e-03 1.5094621281315135e-02  -3.2781079017983787e-03 7.8939283962827997e-03 7.8939283962828257e-03  0.0000000000000000e+00 0.0000000000000000e+00 0.0000000000000000e+00  -1.2932469574434681e-02 1.4614436840146973e-02 1.4614436840146988e-02  -2.5597032150139625e-02 1.9119171219714601e-02 1.9119171219714612e-02  -2.4551751051382999e-02 1.2291354331080005e-02 1.9670542741063671e-02  -3.9850093471710320e-02 2.1818372264445114e-02 2.1818372264445145e-02  -3.8661178284716290e-02 1.4252225050381739e-02 2.2354350746247361e-02  -5.4688533793318082e-02 2.3218101003902328e-02 2.3218101003902359e-02  -5.3555941593869873e-02 1.5324029291188392e-02 2.3681310424156887e-02  -6.9704144902644885e-02 2.3818910259309441e-02 2.3818910259309451e-02  -6.8735568207491091e-02 1.5812462198506221e-02 2.4185580847815694e-02  -3.6487029370946395e-03 1.1687169472406200e-02 7.5290692931218178e-03  0.0000000000000000e+00 0.0000000000000000e+00 0.0000000000000000e+00  -1.4177501372728437e-02 2.0893175241419780e-02 1.4047536320134838e-02  -2.7325573967731304e-02 2.6492531454642525e-02 1.8495970260590727e-02  -4.1619020485970534e-02 2.9571139689209429e-02 2.1244571712723977e-02  -5.6228860051430199e-02 3.1070624608122144e-02 2.2744444528072998e-02  -7.0931132555315482e-02 3.1679221147562012e-02 2.3458144273769639e-02  -4.7471616253150408e-03 1.7040970975300031e-02 7.1354997847957171e-03  0.0000000000000000e+00 0.0000000000000000e+00 0.0000000000000000e+00  -1.6660380612092292e-02 2.8377523976941526e-02 1.3527532150137876e-02  -3.0068406340592668e-02 3.4201159932224057e-02 1.8052400620983382e-02  -4.3923937900198766e-02 3.7212306229654983e-02 2.0901021375307006e-02  -5.7976459657376564e-02 3.8637890058853888e-02 2.2498118342977227e-02  -7.2180146238740639e-02 3.9233901438003239e-02 2.3290491513974665e-02  -7.9892413292082659e-03 2.5673907552593349e-02 6.5872785654052142e-03  0.0000000000000000e+00 0.0000000000000000e+00 0.0000000000000000e+00  -2.1632313575691967e-02 3.5927624302033619e-02 1.3593219305327534e-02  -3.3459948257380898e-02 4.1305668215580647e-02 1.8360963436544503e-02  -4.6165335745968629e-02 4.4155011020571865e-02 2.1296829498310032e-02  -5.9364648329235159e-02 4.5624781541130602e-02 2.2865258112752553e-02  -7.3021331147697779e-02 4.6369306904578085e-02 2.3588207127739836e-02  -3.4622942329914611e-03 4.6143291855273057e-03 1.2069445260982027e-02  0.0000000000000000e+00 0.0000000000000000e+00 0.0000000000000000e+00  -3.6487029370946373e-03 7.5290692931218126e-03 1.1687169472406214e-02  0.0000000000000000e+00 0.0000000000000000e+00 0.0000000000000000e+00  -1.4177501372728442e-02 1.4047536320134805e-02 2.0893175241419749e-02  -1.3492289759493910e-02 8.8674833938974518e-03 2.1534592163890764e-02  -2.7325573967731286e-02 1.8495970260590681e-02 2.6492531454642542e-02  -2.6279339672804578e-02 1.1913823660647183e-02 2.7243920316782418e-02  -4.1619020485970527e-02 2.1244571712723932e-02 2.9571139689209474e-02  -4.0452946200868263e-02 1.3898810697837258e-02 3.0299118187732135e-02  -5.6228860051430192e-02 2.2744444528072949e-02 3.1070624608122158e-02  -5.5130711197428475e-02 1.5026604600519597e-02 3.1692738167313786e-02  -7.0931132555315538e-02 2.3458144273769674e-02 3.1679221147562033e-02  -6.9998028272272139e-02 1.5581596718616418e-02 3.2165640122021714e-02  -4.0494011982328158e-03 1.1170943083939896e-02 1.1170943083939896e-02  0.0000000000000000e+00 0.0000000000000000e+00 0.0000000000000000e+00  -1.5465585476464982e-02 2.0064762624372439e-02 2.0064762624372432e-02  -2.9055775645074909e-02 2.5580756372561134e-02 2.5580756372561162e-02  -4.3357791801754461e-02 2.8745724971065891e-02 2.8745724971065947e-02  -5.7727294141062403e-02 3.0403243947667118e-02 3.0403243947667153e-02  -7.2118281196030559e-02 3.1180713503597520e-02 3.1180713503597558e-02  -5.1985094152312908e-03 1.6439627498543878e-02 1.0533652590613618e-02  0.0000000000000000e+00 0.0000000000000000e+00 0.0000000000000000e+00  -1.7985258844101931e-02 2.7297667725046694e-02 1.9209117200664171e-02  -3.1792862520417006e-02 3.3007146253018933e-02 2.4836071115569753e-02  -4.5639041764990097e-02 3.6149198841520423e-02 2.8165039369755705e-02  -5.9450899290032680e-02 3.7794105984151047e-02 2.9987020931544071e-02  -7.3350266360043215e-02 3.8613218165970339e-02 3.0897995505248368e-02  -8.3113415806861830e-03 2.5127973648564419e-02 9.7670601624418422e-03  0.0000000000000000e+00 0.0000000000000000e+00 0.0000000000000000e+00  -2.2884206259115060e-02 3.4760933449181859e-02 1.9201436693258828e-02  -3.5190785851322529e-02 3.9990823306243470e-02 2.5055873949317596e-02  -4.7936818755101827e-02 4.2985901132842216e-02 2.8471210971423369e-02  -6.0912492378013515e-02 4.4700183822655670e-02 3.0271065704574784e-02  -7.4262692078537501e-02 4.5689779738139966e-02 3.1125677105976884e-02  -4.7471616253150365e-03 7.1354997847956972e-03 1.7040970975300010e-02  0.0000000000000000e+00 0.0000000000000000e+00 0.0000000000000000e+00  -1.6660380612092272e-02 1.3527532150137826e-02 2.8377523976941526e-02  -3.0068406340592619e-02 1.8052400620983323e-02 3.4201159932224084e-02  -4.3923937900198808e-02 2.0901021375306968e-02 3.7212306229655046e-02  -4.2777060203651712e-02 1.3712995405661453e-02 3.8099638355816798e-02  -5.7976459657376543e-02 2.2498118342977200e-02 3.8637890058853951e-02  -5.6896963905342622e-02 1.4894928696217695e-02 3.9389372048367483e-02  -7.2180146238740597e-02 2.3290491513974620e-02 3.9233901438003302e-02  -7.1261379763132585e-02 1.5492350050118623e-02 3.9816213755505953e-02  -5.1985094152312995e-03 1.0533652590613606e-02 1.6439627498543875e-02  0.0000000000000000e+00 0.0000000000000000e+00 0.0000000000000000e+00  -1.7985258844101928e-02 1.9209117200664157e-02 2.7297667725046729e-02  -3.1792862520416992e-02 2.4836071115569718e-02 3.3007146253019010e-02  -4.5639041764990076e-02 2.8165039369755646e-02 3.6149198841520430e-02  -5.9450899290032708e-02 2.9987020931544012e-02 3.7794105984151026e-02  -7.3350266360043187e-02 3.0897995505248306e-02 3.8613218165970339e-02  -6.4711970875767234e-03 1.5492757619174499e-02 1.5492757619174524e-02  0.0000000000000000e+00 0.0000000000000000e+00 0.0000000000000000e+00  -2.0532685080624464e-02 2.6006413287679608e-02 2.6006413287679653e-02  -3.4523942720434277e-02 3.1874375458042128e-02 3.1874375458042198e-02  -4.7892989205367255e-02 3.5279967747071497e-02 3.5279967747071622e-02  -6.1156844393872145e-02 3.7179547147404679e-02 3.7179547147404700e-02  -7.4576295815951280e-02 3.8199459463731621e-02 3.8199459463731697e-02  -9.3949287079948957e-03 2.4165073305200631e-02 1.4370152731810047e-02  0.0000000000000000e+00 0.0000000000000000e+00 0.0000000000000000e+00  -2.5492425513383068e-02 3.3184014179457114e-02 2.5652624358902466e-02  -3.7986461117147236e-02 3.8567122978651697e-02 3.1731767405602060e-02  -5.0269186444319498e-02 4.1893925443476351e-02 3.5288984349856709e-02  -6.2697342899363157e-02 4.3925225916808038e-02 3.7227943096111459e-02  -7.5556442245277480e-02 4.5163548649382608e-02 3.8253920787932105e-02  -5.9364648329235006e-02 2.2865258112752477e-02 4.5624781541130574e-02  -4.6165335745968594e-02 2.1296829498310008e-02 4.4155011020571899e-02  -7.3021331147697710e-02 2.3588207127739791e-02 4.6369306904578043e-02  -8.3113415806861882e-03 9.7670601624417954e-03 2.5127973648564391e-02  -7.9892413292082676e-03 6.5872785654052064e-03 2.5673907552593338e-02  0.0000000000000000e+00 0.0000000000000000e+00 0.0000000000000000e+00  0.0000000000000000e+00 0.0000000000000000e+00 0.0000000000000000e+00  -2.2884206259115077e-02 1.9201436693258789e-02 3.4760933449181852e-02  -2.1632313575691980e-02 1.3593219305327501e-02 3.5927624302033598e-02  -3.5190785851322591e-02 2.5055873949317544e-02 3.9990823306243435e-02  -3.3459948257380905e-02 1.8360963436544458e-02 4.1305668215580640e-02  -4.7936818755101834e-02 2.8471210971423303e-02 4.2985901132842355e-02  -6.0912492378013515e-02 3.0271065704574704e-02 4.4700183822655677e-02  -7.4262692078537473e-02 3.1125677105976777e-02 4.5689779738139973e-02  -9.3949287079948991e-03 1.4370152731810021e-02 2.4165073305200634e-02  0.0000000000000000e+00 0.0000000000000000e+00 0.0000000000000000e+00  -2.5492425513383068e-02 2.5652624358902421e-02 3.3184014179457148e-02  -3.7986461117147242e-02 3.1731767405601990e-02 3.8567122978651704e-02  -5.0269186444319519e-02 3.5288984349856660e-02 4.1893925443476428e-02  -6.2697342899363170e-02 3.7227943096111396e-02 4.3925225916808121e-02  -7.5556442245277383e-02 3.8253920787932078e-02 4.5163548649382636e-02  -1.2305086589284376e-02 2.2860606959190836e-02 2.2860606959190826e-02  0.0000000000000000e+00 0.0000000000000000e+00 0.0000000000000000e+00  -3.1138657540945563e-02 3.2074181051443801e-02 3.2074181051443808e-02  -4.1746706612453839e-02 3.7856073705477888e-02 3.7856073705477888e-02  -5.2870180695719783e-02 4.1471080523180340e-02 4.1471080523180319e-02  -6.4376818218573967e-02 4.3665417808561938e-02 4.3665417808561958e-02  -7.6628692576501761e-02 4.5007456990527016e-02 4.5007456990527113e-02  0.0000000000000000e+00 0.0000000000000000e+00 0.0000000000000000e+00  0.0000000000000000e+00 0.0000000000000000e+00 0.0000000000000000e+00  -1.0395494569190472e-02 -4.7905870605041622e-03 -2.7281222428455845e-02  -4.5440304289547382e-03 -5.1066881127661799e-03 -1.9250872467694406e-02  0.0000000000000000e+00 0.0000000000000000e+00 0.0000000000000000e+00  -3.3618572065763269e-02 -1.9050909278057294e-02 -4.1680115848755230e-02  -4.6241785036585346e-02 -2.1913623254973459e-02 -4.4543330752017961e-02  -4.5032461720196058e-02 -1.4702647503860538e-02 -4.5501097450284404e-02  -4.2981475973544347e-02 -1.4353520016502069e-02 -3.8575317415985556e-02  -4.4158577856271440e-02 -2.1491786332458383e-02 -3.7665112239635493e-02  -3.2561988024028626e-02 -1.2620278709853525e-02 -4.2690063942893597e-02  -2.9306962435894122e-02 -1.2335167328218509e-02 -3.5739257559513272e-02  -5.8300203312755233e-02 -1.5839587926657139e-02 -4.6876054293667091e-02  -5.7032885920436781e-02 -1.5510492040682659e-02 -3.9866848127738101e-02  -1.0327908653226407e-02 -2.4835612831314319e-03 -2.7523040793870631e-02  -4.4225622166043348e-03 -2.6608885899220519e-03 -1.9500620583098174e-02  0.0000000000000000e+00 0.0000000000000000e+00 0.0000000000000000e+00  0.0000000000000000e+00 0.0000000000000000e+00 0.0000000000000000e+00  -2.1192393184798441e-02 -9.3258105051205551e-03 -3.7228086492846063e-02  -2.0887539214899969e-02 -4.7436529752060618e-03 -3.7714348820457114e-02  -1.5891686755669709e-02 -4.7021116994532524e-03 -3.0082176526440314e-02  -1.6283810677498178e-02 -9.2556549532904382e-03 -2.9600901228215775e-02  -3.2001849527419274e-02 -6.4182741022128318e-03 -4.3304378405693150e-02  -2.8707479961988303e-02 -6.2637660362674817e-03 -3.6333409468152028e-02  -4.4333783296431971e-02 -7.5062362199545991e-03 -4.6112847729523981e-02  -4.2292953757866285e-02 -7.3139759473856225e-03 -3.9164566965737321e-02  -5.7592540192980171e-02 -8.1104012025320620e-03 -4.7407770482646709e-02  -5.6360127774313588e-02 -7.9237036128469475e-03 -4.0377948422983721e-02  -7.1481992623560267e-02 -8.3858541027469827e-03 -4.7900070812256362e-02  -7.0762463642082746e-02 -8.2295222495129914e-03 -4.0720961964479767e-02  -1.0299415857789455e-02 -3.2661660054195379e-04 -2.7616815794851375e-02  -4.3773404356676031e-03 -3.7363926915237849e-04 -1.9593657669493319e-02  0.0000000000000000e+00 0.0000000000000000e+00 0.0000000000000000e+00  0.0000000000000000e+00 0.0000000000000000e+00 0.0000000000000000e+00  -2.0784224875074957e-02 -3.5434488384223527e-04 -3.7885055701785394e-02  -1.5755653849767518e-02 -3.4591482686152294e-04 -3.0248820102854127e-02  -3.1814830961255904e-02 -3.4978562566953791e-04 -4.3519995744395329e-02  -2.8501888673685950e-02 -3.4517990427144330e-04 -3.6541714292038723e-02  -4.4094728686597716e-02 -3.4451420855600669e-04 -4.6330714273370481e-02  -4.2053742662041253e-02 -3.4155241719429800e-04 -3.9373991856279975e-02  -5.7343992635776164e-02 -3.3769396283808592e-04 -4.7599505045469892e-02  -5.6122567407924151e-02 -3.3257977835278766e-04 -4.0561838321774735e-02  -7.1254469105156551e-02 -3.2980908770136556e-04 -4.8053776044948128e-02  -7.0549596399883063e-02 -3.2368947386714767e-04 -4.0868147465201975e-02  -1.0296066798557151e-02 1.8109728420637053e-03 -2.7567717902392899e-02  -4.3947688918285575e-03 1.8918476129819067e-03 -1.9535588064099361e-02  0.0000000000000000e+00 0.0000000000000000e+00 0.0000000000000000e+00  0.0000000000000000e+00 0.0000000000000000e+00 0.0000000000000000e+00  -2.0849293856210791e-02 4.0266601966344453e-03 -3.7752270297887580e-02  -1.5842469750545426e-02 4.0042163483931708e-03 -3.0110353207918772e-02  -3.1963869334303778e-02 5.7125727199174459e-03 -4.3339936765865519e-02  -2.8657542134965661e-02 5.5691887028538646e-03 -3.6362523576271601e-02  -4.4295287561958815e-02 6.8122447328123606e-03 -4.6143549906559757e-02  -4.2248394213467287e-02 6.6291858936142981e-03 -3.9189746245174031e-02  -5.7555973097093538e-02 7.4319985187085869e-03 -4.7431305596940143e-02  -5.6322985710953385e-02 7.2585785213563235e-03 -4.0396902071271217e-02  -7.1449658893305179e-02 7.7247896085710210e-03 -4.7917033562489539e-02  -7.0732016691580163e-02 7.5827846930894751e-03 -4.0734322740058289e-02  -1.0325733854666164e-02 4.0573087555312547e-03 -2.7371325516084729e-02  -4.4829622587670920e-03 4.2701358278779342e-03 -1.9319659391182378e-02  0.0000000000000000e+00 0.0000000000000000e+00 0.0000000000000000e+00  0.0000000000000000e+00 0.0000000000000000e+00 0.0000000000000000e+00  -2.1118446638761411e-02 8.5827398332373513e-03 -3.7304681775239205e-02  -1.6182168298873183e-02 8.541457276759