<?xml version="1.0"?>
<VTKFile type="UnstructuredGrid"  version="0.1"  >
<UnstructuredGrid>
<Piece  NumberOfPoints="625" NumberOfCells="2522">
<Points>
<DataArray  type="Float64"  NumberOfComponents="3"  format="ascii">0 0 0.3333333333333333  0 0 0.4166666666666667  0.09177348120458324 0.02222061714627163 0.4186894914394619  0.08681256566955366 0.0990170629760834 0.4186342163966723  0 0.08333333333333333 0.4166666666666667  0.08677385972640338 0.09911471487120314 0.5002070092134301  0.09175419076546951 0.02232589429627929 0.5001707338255343  0 0 0.5  0 0.08333333333333333 0.5  0.1835142254804013 0.02858056066612713 0.4202169287787219  0.1795576972308102 0.1062140713912408 0.4200658701685955  0.1794385461922627 0.1063757745239759 0.5001447286267584  0.1834171173115722 0.02874700555977664 0.5001485322640619  0.2757780367170696 0.03199228827513555 0.4213234660040518  0.2732437377431198 0.1103188428369769 0.4211620736767597  0.2730691827720444 0.1104983947452818 0.5001373910197801  0.2756098997334855 0.03217449919073574 0.5001298614262728  0.3693962930814709 0.0334436778328164 0.4220060617892826  0.3679668200687762 0.1117470973314043 0.4218510801081354  0.3677687337478358 0.1119091219447639 0.500119158523636  0.369192232448155 0.03360774829547031 0.5001139248135299  0.463876243310448 0.03398737858816783 0.4223630275833304  0.4630508826530172 0.112243149759283 0.422234201620054  0.4628597624550061 0.1123718039884019 0.5001080203933383  0.4636728416983449 0.03411777611838003 0.5001038082207386  0.5589145435436044 0.03410045633256575 0.4225128300671142  0.5584654880888132 0.1122482689913272 0.4224158512802432  0.5582981661535922 0.1123416546905768 0.5001036444226943  0.5587340027855522 0.03419512258448774 0.5001004976226581  0.08571503276777831 0.177196150380274 0.4186624178430285  0.08568040241458456 0.1772977401113044 0.5002067158700848  0 0.1666666666666667 0.4166666666666667  0 0.1666666666666667 0.5  0.1773053542652342 0.183898943624219 0.4201384005672673  0.1771893016892757 0.1840413389638354 0.5001545705759797  0.2709394037413089 0.1877590587794976 0.4212464476390819  0.2707611841462111 0.1879099825820318 0.5001546014660445  0.3660967363410059 0.1894224897903315 0.4219196678075218  0.365892036599407 0.1895585496979872 0.5001330429205439  0.4616734720303288 0.1900366959579231 0.4222847404087786  0.4614758221183305 0.190145518182411 0.5001200196407793  0.557517260369836 0.1900846702516061 0.4224486885824573  0.5573451578626842 0.1901640379262149 0.5001123569183288  0.08539610171890002 0.2572090428662792 0.4187754596553493  0.08536310671184313 0.2572936583939594 0.5002185278154361  0 0.25 0.4166666666666667  0 0.25 0.5  0.1759325865592747 0.2622106856045724 0.4202929711748438  0.1758133046839919 0.2623156854896121 0.5001622366809502  0.2693159897709692 0.2653800682294639 0.4214024012203023  0.269128946061915 0.2654943069376996 0.5001558878004466  0.3644804391254578 0.2669639262142354 0.4220552107290063  0.3642657606666561 0.2670677318743231 0.5001317106894517  0.4603411155075996 0.2675926722213551 0.4223904780667561  0.4601331766840265 0.267676350959284 0.5001179822396442  0.5564964113663217 0.2677079305626847 0.4225233390032513  0.5563162163799873 0.2677692840872431 0.5001098739433948  0.08518367719928864 0.3378829826677829 0.4188878225297535  0.08515018046944237 0.3379412642337746 0.5002266067882408  0 0.3333333333333333 0.4166666666666667  0 0.3333333333333333 0.5  0.1752336438682555 0.3411382211924899 0.4204369544897558  0.1751123919858138 0.3412066187497556 0.5001605934281415  0.2680970840428581 0.3434336178688861 0.5001537124776271  0.3630946434169625 0.344621156733685 0.5001286672234209  0.459082226514242 0.3451328208225619 0.5001144473375875  0.5554494848135118 0.3452514999544857 0.5001065732971052  0.08509428679010508 0.4189664806871815 0.4189664806871814  0.08506042116827471 0.4189956310439388 0.5002310914514666  0 0.4166666666666667 0.4166666666666667  0 0.4166666666666667 0.5  0.17476202189842 0.4205658178022824 0.5001567675396348  0.2675081694973275 0.4216989717765924 0.5001498902781976  0.08502635753355137 0.5002309828260371 0.5002309828260372  0 0.5 0.5  0 0.5 0.4166666666666667  0.1746384672165441 0.5001508588013089 0.5001508588013089  0.08504197889973497 0.5814852112500264 0.5002264633961803  0 0.5833333333333334 0.5  0.0867931503572906 0.09904860207856675 0.5817924475461314  0.09175010049773097 0.0222542021780338 0.5816631833606175  0 0 0.5833333333333334  0 0.08333333333333333 0.5833333333333334  0.1795202642947414 0.1062313605867921 0.5802287215227084  0.1834780440784256 0.02860116407911994 0.5800848138222247  0.2732126657788183 0.1103246348883248 0.5791129330073551  0.2757476016357309 0.0320000074703377 0.5789362209848165  0.3679467532277963 0.1117437167667488 0.5783860521478553  0.3693772375101511 0.03344233373246167 0.5782216497318885  0.4630408204258681 0.1122355852052943 0.5779812541616938  0.4638673820837378 0.0339813687508746 0.577844913656222  0.5584600620747503 0.1122403417190662 0.5777921051674653  0.5589105866449164 0.03409353985339912 0.5776897249771228  0.08569861388033265 0.1772299458993385 0.5817665568895856  0 0.1666666666666667 0.5833333333333334  0.1772736092070494 0.1839100010897056 0.5801789343059467  0.2709101968291883 0.1877553565542152 0.5790642618650473  0.3660748145401226 0.1894115333204377 0.5783444174650348  0.4616593495100746 0.1900240421696614 0.5779532729586585  0.5575074659943938 0.1900733014615975 0.5777751411133794  0.08537919027364421 0.2572333816287565 0.581679474142402  0 0.25 0.5833333333333334  0.1758957270921309 0.2622073753868714 0.5800394304793094  0.269281879485027 0.2653728781688481 0.5789097658964544  0.3644571754635221 0.2669527969288293 0.5782044200783196  0.4603265057989307 0.2675807220631061 0.5778421587237633  0.5564870956220206 0.267697325246179 0.5776948432245641  0.08516560744649559 0.3378975926188845 0.5815839799595564  0 0.3333333333333333 0.5833333333333334  0.1751956308082223 0.3411310767129514 0.5798907672045435  0.26825500803156 0.3433510116319511 0.5787487968680294  0.3632945291175739 0.3445422005283415 0.5780564716127387  0.4592853911771065 0.3450668042286898 0.5777213628500599  0.5556294441036351 0.3452015069040473 0.5776052921094698  0.08507595295893243 0.4189714210122173 0.5815145255743748  0 0.4166666666666667 0.5833333333333334  0.1748464236766798 0.4205247672797391 0.5797841278750818  0.2676692741645971 0.4216550860452318 0.578632967242263  0.3626150085554551 0.4222811893306422 0.5779478390363613  0.4586382728206904 0.4225725940018122 0.5776313555518023  0.5550741991857917 0.4226557895529008 0.5775374974594728  0.085041978899735 0.5002264633961803 0.5814852112500264  0 0.5 0.5833333333333334  0.1747234306170323 0.5001443083534395 0.5797411751833343  0.2674738313850525 0.5001390547049913 0.5785872293895262  0.3623874658211814 0.5001118929320099 0.5779050828819173  0.08505753525159614 0.5815003003801898 0.5815003003801897  0 0.5833333333333334 0.5833333333333334  0.1748082038029085 0.5797689846884571 0.5797689846884571  0.2676357471318127 0.5786200663657177 0.5786200663657178  0.08512757569128217 0.6626231458988595 0.581557277390332  0 0.6666666666666666 0.5833333333333334  0.1751208456390863 0.6591659276678734 0.5798631194651136  0.08687948175640521 0.09881231299236626 0.6632872234369668  0.09176943288400344 0.02199978612050659 0.6630694910867863  0 0 0.6666666666666666  0 0.08333333333333333 0.6666666666666666  0.1798274141272306 0.1057760767811394 0.6601688768807501  0.1837269505381125 0.02813450890120267 0.6598936612944826  0.273701122177008 0.1098031790248397 0.6579765833020889  0.2762218938522483 0.0314718080453865 0.6576629588718763  0.3685146542747443 0.1112668687946626 0.6566017238287444  0.3699678023718515 0.03295996352153435 0.656313430570696  0.4635911902464868 0.1118551955619741 0.6558563365840585  0.4644560739384334 0.03359685923609824 0.655622260036125  0.5589375537720112 0.1119641816722249 0.655510642581928  0.5594287246415757 0.0338138298996338 0.6553374771887243  0.08577578206642851 0.1769894492598937 0.6632097967967242  0 0.1666666666666667 0.6666666666666666  0.1775811112783597 0.1835070489537763 0.6600195791952554  0.271412689374543 0.1873061272980466 0.6578248971198721  0.3666600098146878 0.1889998774561502 0.6564756572361978  0.4622227233564906 0.1896934975644296 0.6557672542122008  0.5579912601940324 0.1898320699719629 0.6554537193792906  0.08545021811391225 0.2570298218318657 0.6630014298191731  0 0.25 0.6666666666666666  0.1762016592450051 0.2618932547341054 0.6597043091951293  0.2698010850104195 0.2650297358834174 0.6574899613596414  0.3650719645771265 0.2666373572348343 0.6561801033777502  0.46092069448458 0.2673250966857121 0.655537595411665  0.5569956355207235 0.2675090529004574 0.6552909687472226  0.08523528019118054 0.3377559524831104 0.6627927188716  0 0.3333333333333333 0.6666666666666666  0.1755042852253432 0.3409207556955824 0.6593960423508715  0.2687897091830047 0.3431232960392014 0.6571592119761929  0.3639357001648243 0.3443317664540473 0.6558801596182909  0.459908719277306 0.3448949049482126 0.6552964892684386  0.5561631759384105 0.3450738272984992 0.655114593419054  0.08514578939865672 0.4188971045916834 0.6626471429367733  0 0.4166666666666667 0.6666666666666666  0.1751582812838536 0.4204183073415818 0.6591835205755465  0.2682142317781943 0.421540839834712 0.6569284499332645  0.3632733284097158 0.4221756606636125 0.6556667765498688  0.4592811681578147 0.4224863554011565 0.6551217789921754  0.5556254533182974 0.4225915718236155 0.6549844976437829  0.08511205387629256 0.5002180692771161 0.6625886604291714  0 0.5 0.6666666666666666  0.175036773973415 0.500138415734239 0.6591034626656308  0.2680227369466039 0.5001349177362454 0.6568422022478093  0.3630521762850147 0.5001091962712952 0.6555872849768912  0.4584150917472629 0.5000998053429386 0.577596222818753  0.459065145375791 0.5000986539147804 0.655056884397284  0.5548818563854685 0.5000949151388551 0.5775110587978186  0.555439444365167 0.500
[...]
<PointData  Vectors="f_34"> 
<DataArray  type="Float64"  Name="f_34"  NumberOfComponents="3" format="ascii">0.0000000000000000e+00 0.0000000000000000e+00 0.0000000000000000e+00  0.0000000000000000e+00 0.0000000000000000e+00 0.0000000000000000e+00  -9.8209393919313701e-03 -2.5797694933504874e-02 -2.3058501290432560e-03  -4.0730409419718850e-03 -1.8256757662692292e-02 -2.2681609528213895e-03  0.0000000000000000e+00 0.0000000000000000e+00 0.0000000000000000e+00  -4.0284464322150985e-03 -1.8372702376626946e-02 -2.4679411199931889e-04  -9.8002431464808901e-03 -2.5921649714219508e-02 -1.9970835310002791e-04  0.0000000000000000e+00 0.0000000000000000e+00 0.0000000000000000e+00  0.0000000000000000e+00 0.0000000000000000e+00 0.0000000000000000e+00  -1.9670089369070450e-02 -3.3356587518069150e-02 -4.0918821764749881e-03  -1.4863601544600494e-02 -2.6657181108575560e-02 -3.9158951171657007e-03  -1.4726508613539413e-02 -2.6853506240884159e-02 -1.7480897448365372e-04  -1.9560264063660050e-02 -3.3556740621114467e-02 -1.7778088648456387e-04  -2.9824482765728747e-02 -3.7341693182362821e-02 -5.3815666124624444e-03  -2.6804479869533871e-02 -3.1510685865900591e-02 -5.1891797955752094e-03  -2.6603220067249040e-02 -3.1729807689856296e-02 -1.6484130789189597e-04  -2.9631266613040136e-02 -3.7563112116807705e-02 -1.5652539375981596e-04  -4.1594454229519712e-02 -3.9033718952082359e-02 -6.1905299646077177e-03  -3.9880967108480089e-02 -3.3173350819482132e-02 -6.0030750815004540e-03  -3.9650190746096922e-02 -3.3372616445307118e-02 -1.4347285846229838e-04  -4.1355956464764455e-02 -3.9234908002998510e-02 -1.3739027467109233e-04  -5.4330554087201596e-02 -3.9667078544067189e-02 -6.6229608704125751e-03  -5.3338108367009196e-02 -3.3763086888433720e-02 -6.4650066229419234e-03  -5.3113267399683611e-02 -3.3922423100682587e-02 -1.2908572720632622e-04  -5.4089764372983490e-02 -3.9828377801955965e-02 -1.2411891850338752e-04  -6.7723880566492284e-02 -3.9796496485653275e-02 -6.8114980340528240e-03  -6.7183593338614872e-02 -3.3767395294686781e-02 -6.6909898200652332e-03  -6.6984390058776044e-02 -3.3884127777458639e-02 -1.2240700329790117e-04  -6.7507406463399894e-02 -3.9914703861311261e-02 -1.1851266901805010e-04  -2.7411920574064311e-03 -1.2226285879308605e-02 -2.3052408241272058e-03  -2.7015091241313423e-03 -1.2347559792918100e-02 -2.4413025004397580e-04  0.0000000000000000e+00 0.0000000000000000e+00 0.0000000000000000e+00  0.0000000000000000e+00 0.0000000000000000e+00 0.0000000000000000e+00  -1.2243647274503574e-02 -2.0013874183281946e-02 -4.0027816406231591e-03  -1.2110159945960432e-02 -2.0186748707773209e-02 -1.8308164310034859e-04  -2.4096555940590646e-02 -2.4586067769205626e-02 -5.2965205855990596e-03  -2.3891004410397508e-02 -2.4770996255377698e-02 -1.8632363072385562e-04  -3.7659945592546026e-02 -2.6550390794566319e-02 -6.0891410349717262e-03  -3.7421802199038436e-02 -2.6718232383495553e-02 -1.6044114678852059e-04  -5.1701244723083011e-02 -2.7288747978453990e-02 -6.5285536030834888e-03  -5.1469455197359792e-02 -2.7423771898044479e-02 -1.4398661417548759e-04  -6.6050553713240617e-02 -2.7353494367892563e-02 -6.7322334036648956e-03  -6.5846647354662557e-02 -2.7452783299409655e-02 -1.3331686214280858e-04  -2.3763988635192423e-03 -8.3658095732784717e-03 -2.4395639614808872e-03  -2.3387043051392620e-03 -8.4665610270619075e-03 -2.5712402867883352e-04  0.0000000000000000e+00 0.0000000000000000e+00 0.0000000000000000e+00  0.0000000000000000e+00 0.0000000000000000e+00 0.0000000000000000e+00  -1.0674356755551369e-02 -1.4184470580873808e-02 -4.1958308338122322e-03  -1.0537050309283853e-02 -1.4312375041188267e-02 -1.9478041457128271e-04  -2.2195392151589124e-02 -1.7902908217519723e-02 -5.4897858278152509e-03  -2.1979400426603825e-02 -1.8043309547555977e-02 -1.8872786512415561e-04  -3.5762776853514880e-02 -1.9772821199165406e-02 -6.2576011662246892e-03  -3.5512869953876772e-02 -1.9901082454944014e-02 -1.5903149611238418e-04  -5.0129250857986390e-02 -2.0531191661511475e-02 -6.6605803205286316e-03  -4.9885787143224516e-02 -2.0635067408619111e-02 -1.4185065453693689e-04  -6.4836737451109946e-02 -2.0681140888767921e-02 -6.8258245780299003e-03  -6.4623980151374882e-02 -2.0757904981375044e-02 -1.3044160492632018e-04  -2.1345370477862044e-03 -5.2770776021980438e-03 -2.5746288236714694e-03  -2.0962139261110043e-03 -5.3465116580594914e-03 -2.6722022523202843e-04  0.0000000000000000e+00 0.0000000000000000e+00 0.0000000000000000e+00  0.0000000000000000e+00 0.0000000000000000e+00 0.0000000000000000e+00  -9.8616716470389890e-03 -9.0574399516337757e-03 -4.3719825320654724e-03  -9.7219369637415662e-03 -9.1411940574459959e-03 -1.9356430685547570e-04  -2.0782627794911593e-02 -1.1746325105546082e-02 -1.8584262065320125e-04  -3.4149989546589730e-02 -1.3150894416710411e-02 -1.5576810391724943e-04  -4.8651343225558384e-02 -1.3767116575439262e-02 -1.3771482833958051e-04  -6.3599204020290415e-02 -1.3919268739966892e-02 -1.2650702274630011e-04  -2.0306792948486096e-03 -2.6683728693547713e-03 -2.6683728693548052e-03  -1.9919602761750395e-03 -2.7031312117679431e-03 -2.7253144751726154e-04  0.0000000000000000e+00 0.0000000000000000e+00 0.0000000000000000e+00  0.0000000000000000e+00 0.0000000000000000e+00 0.0000000000000000e+00  -9.3175202646109991e-03 -4.5292576473219982e-03 -1.8933699037899978e-04  -2.0105001957556375e-02 -5.8534710918713593e-03 -1.8164905219939713e-04  -1.9530168227266098e-03 -2.7242113053908417e-04 -2.7242113053905310e-04  0.0000000000000000e+00 0.0000000000000000e+00 0.0000000000000000e+00  0.0000000000000000e+00 0.0000000000000000e+00 0.0000000000000000e+00  -9.1749211268703709e-03 -1.8258778878829863e-04 -1.8258778878834327e-04  -1.9706056084498485e-03 2.1357254945328342e-03 -2.6699918189328063e-04  0.0000000000000000e+00 0.0000000000000000e+00 0.0000000000000000e+00  -4.0488433895620977e-03 -1.8293680227543876e-02 1.7590616217094943e-03  -9.7923219301847778e-03 -2.5836374198279978e-02 1.8919322248449975e-03  0.0000000000000000e+00 0.0000000000000000e+00 0.0000000000000000e+00  0.0000000000000000e+00 0.0000000000000000e+00 0.0000000000000000e+00  -1.4816820656943482e-02 -2.6681732699259532e-02 3.5593438114309172e-03  -1.9624978390970743e-02 -3.3384786782291932e-02 3.7302748442089350e-03  -2.6765564398640716e-02 -3.1520442940363082e-02 4.8584595566706565e-03  -2.9785724593890613e-02 -3.7354125122835743e-02 5.0682114055913118e-03  -3.9854961047808959e-02 -3.3171390109123518e-02 5.7175859429987493e-03  -4.1568850081489132e-02 -3.9034295721730505e-02 5.9160226123009443e-03  -5.3324797812657566e-02 -3.3754891149637097e-02 6.2077854421175686e-03  -5.4317925626605507e-02 -3.9660886758719753e-02 6.3747429388556825e-03  -6.7176254000780547e-02 -3.3758093595430493e-02 6.4456445918735592e-03  -6.7717827778655745e-02 -3.9788402944836647e-02 6.5729299634888147e-03  -2.7218099735356422e-03 -1.2266987837551905e-02 1.7981064636005740e-03  0.0000000000000000e+00 0.0000000000000000e+00 0.0000000000000000e+00  -1.2204699812444932e-02 -2.0029519301134124e-02 3.6259232416567520e-03  -2.4060290175986009e-02 -2.4583959485035788e-02 4.9209452933607813e-03  -3.7632046125435144e-02 -2.6538846034855238e-02 5.7703991067196815e-03  -5.1683357425833305e-02 -2.7274139656322170e-02 6.2432141619194800e-03  -6.6038236110980586e-02 -2.7339813030957050e-02 6.4669338314645580e-03  -2.3567230055677128e-03 -8.3949916224508245e-03 1.9038302938179923e-03  0.0000000000000000e+00 0.0000000000000000e+00 0.0000000000000000e+00  -1.0629807384107156e-02 -1.4182555713345998e-02 3.7961713020892448e-03  -2.2153442338066848e-02 -1.7896050350807009e-02 5.1106625802531409e-03  -3.5733259277579713e-02 -1.9760504889795080e-02 5.9434892470001457e-03  -5.0110966238383285e-02 -2.0517126143745960e-02 6.3810923566210700e-03  -6.4825265703161342e-02 -2.0668271128699497e-02 6.5671761059839136e-03  -2.1135302636632377e-03 -5.2946574998581014e-03 2.0179924777101259e-03  0.0000000000000000e+00 0.0000000000000000e+00 0.0000000000000000e+00  -9.8158112982213684e-03 -9.0505977900733250e-03 3.9763764242802197e-03  -2.0962694505308282e-02 -1.1645963744548614e-02 5.3078941168623241e-03  -3.4380436251872586e-02 -1.3054214737694823e-02 6.1255811446926777e-03  -4.8888000099985895e-02 -1.3685648438642907e-02 6.5306494860608629e-03  -6.3810950037865882e-02 -1.3856973933885916e-02 6.6789061012755340e-03  -2.0094230482394430e-03 -2.6743518168118453e-03 2.1008242396856358e-03  0.0000000000000000e+00 0.0000000000000000e+00 0.0000000000000000e+00  -9.4128632106984730e-03 -4.4800011185575908e-03 4.1051240998999363e-03  -2.0288968611551817e-02 -5.8000863791531363e-03 5.4491041787871758e-03  -3.3590789908811522e-02 -6.5380498580709023e-03 6.2589497367742481e-03  -4.8130592718730797e-02 -6.8871207040594211e-03 6.6420048562171102e-03  -6.3156816449491684e-02 -6.9917458043104938e-03 6.7634577590816088e-03  -1.9706056084497947e-03 -2.6699918189327417e-04 2.1357254945327591e-03  0.0000000000000000e+00 0.0000000000000000e+00 0.0000000000000000e+00  -9.2709847884193033e-03 -1.7471676300098802e-04 4.1569052822295199e-03  -2.0062703654827565e-02 -1.6858094532219483e-04 5.5049335331806663e-03  -3.3326030991011578e-02 -1.3576405457763811e-04 6.3115562085191102e-03  -1.9881486002838516e-03 2.1179035419690564e-03 2.1179035419690404e-03  0.0000000000000000e+00 0.0000000000000000e+00 0.0000000000000000e+00  -9.3668697352364463e-03 4.1235886393027315e-03 4.1235886393027098e-03  -2.0247845349086649e-02 5.4651906314665778e-03 5.4651906314665665e-03  -2.0680641147529269e-03 4.6771164967435641e-03 2.0502430624910525e-03  0.0000000000000000e+00 0.0000000000000000e+00 0.0000000000000000e+00  -9.7238918831406059e-03 8.6900362742725317e-03 4.0102465025348196e-03  -4.1445385107656647e-03 -1.8011411272675099e-02 3.8670433996341666e-03  -9.8058596325680276e-03 -2.5533779166336125e-02 4.0802170931889693e-03  0.0000000000000000e+00 0.0000000000000000e+00 0.0000000000000000e+00  0.0000000000000000e+00 0.0000000000000000e+00 0.0000000000000000e+00  -1.5162331588471153e-02 -2.6135508991889878e-02 7.4592323354618689e-03  -1.9897690231997625e-02 -3.2829965106541514e-02 7.7850708363103793e-03  -2.7324239302174251e-02 -3.0888325621696536e-02 1.0016358696908379e-02  -3.0325418264231536e-02 -3.6716953951437412e-02 1.0388854762073213e-02  -4.0513024906897913e-02 -3.2588188953564710e-02 1.1644507054026134e-02  -4.2254713424698415e-02 -3.8445643624969363e-02 1.1993571016777544e-02  -5.3971341387756694e-02 -3.3285247452636384e-02 1.2547422748554367e-02  -5.5012664749922432e-02 -3.9186882660379042e-02 1.2834601581433531e-02  -6.7744482021628888e-02 -3.3413542327537807e-02 1.2981186956125398e-02  -6.8338234071566445e-02 -3.9439526543078071e-02 1.3196940682692246e-02  -2.8091022294882829e-03 -1.1979798630443772e-02 3.9732758195306734e-03  0.0000000000000000e+00 0.0000000000000000e+00 0.0000000000000000e+00  -1.2553360874263546e-02 -1.9543948765796359e-02 7.6495861382695571e-03  -2.4636075483133922e-02 -2.4037482443761062e-02 1.0207803744086646e-02  -3.8309608340439470e-02 -2.6034117243240274e-02 1.1802397699757657e-02  -5.2343354603039537e-02 -2.6865450620020433e-02 1.2659205272166942e-02  -6.6611515328779444e-02 -2.7038658111143365e-02 1.3052405634699459e-02  -2.4373247188758081e-03 -8.1523275499248773e-03 4.2247493960247693e-03  0.0000000000000000e+00 0.0000000000000000e+00 0.0000000000000000e+00  -1.0977787483236506e-02 -1.3803308988319050e-02 8.0364183876795170e-03  -2.2749421277713941e-02 -1.7477697342173228e-02 1.0619615580168131e-02  -3.6445368250200498e-02 -1.9373122130588852e-02 1.2167985597213150e-02  -5.0806203319970766e-02 -2.0200808692887491e-02 1.2944560202214045e-02  -6.5426379950006011e-02 -2.0433174093769310e-02 1.3255851849007620e-02  -2.1928487404533851e-03 -5.1257604820443836e-03 4.4745876814426327e-03  0.0000000000000000e+00 0.0000000000000000e+00 0.0000000000000000e+00  -1.0167636107657797e-02 -8.7964284035172199e-03 8.4108693757508068e-03  -2.1577421663868144e-02 -1.1368007210007115e-02 1.1024564828696168e-02  -3.5123529272539034e-02 -1.2795504213041082e-02 1.2537620299896420e-02  -4.9616944943705929e-02 -1.3472780507776944e-02 1.3243351503043111e-02  -6.4440960108567355e-02 -1.3697487622616434e-02 1.3476117945044866e-02  -2.0890405677814698e-03 -2.5857143287861891e-03 4.6482362771039171e-03  0.0000000000000000e+00 0.0000000000000000e+00 0.0000000000000000e+00  -9.7687814810819579e-03 -4.3512341904553779e-03 8.6679158878421314e-03  -2.0916100686722314e-02 -5.6604354589435725e-03 1.1306349911929945e-02  -3.4354093166836998e-02 -6.4081216439192948e-03 1.2799996493259184e-02  -4.8882307426186052e-02 -6.7801799136382101e-03 1.3459657859732608e-02  -6.3807092255903960e-02 -6.9114332279884665e-03 1.3638527749658885e-02  -2.0505408806576163e-03 -2.5683854332975869e-04 4.7178813968484076e-03  0.0000000000000000e+00 0.0000000000000000e+00 0.0000000000000000e+00  -9.6287931725893335e-03 -1.6733683192203218e-04 8.7648402786534869e-03  -2.0694667397977998e-02 -1.6322277867041431e-04 1.1411839994542249e-02  -3.4096957694997043e-02 -1.3218151084378154e-04 1.2897903845546047e-02  -4.7870084809107538e-02 -1.1981614151394560e-04 6.6855544752713915e-03  -4.8630249425376137e-02 -1.1814296706605936e-04 1.3540160584339976e-02  -6.2930589899537800e-02 -1.1203392540022059e-04 6.7965244316165879e-03  -6.3588323605655403e-02 -1.1157497847671766e-04 1.3698986667032819e-02  -2.0680641147528566e-03 2.0502430624911028e-03 4.6771164967435615e-03  0.0000000000000000e+00 0.0000000000000000e+00 0.0000000000000000e+00  -9.7238918831407256e-03 4.0102465025349003e-03 8.6900362742724849e-03  -2.0876782781613836e-02 5.3367772012492976e-03 1.1325113489722580e-02  -3.3564715388982327e-02 6.2728196046980449e-03 6.2728196046980310e-03  -3.4330179579974529e-02 6.1503123376007813e-03 1.2813745139223941e-02  -4.8116667949027678e-02 6.6519209947318607e-03 6.6519209947319968e-03  -4.8870134857799161e-02 6.5483371678749193e-03 1.3468131927296595e-02  -6.3151695102889288e-02 6.7702135727096069e-03 6.7702135727095852e-03  -6.3803011420620087e-02 6.6907624819986427e-03 1.3643257923286417e-02  -2.1482410838577983e-03 4.5302031178985442e-03 4.5302031178985711e-03  0.0000000000000000e+00 0.0000000000000000e+00 0.0000000000000000e+00  -1.0078120622668597e-02 8.4528079191061138e-03 8.4528079191061398e-03  -2.0876782781613794e-02 1.1325113489722616e-02 5.3367772012492543e-03  -2.1495145301875032e-02 1.1059374834373545e-02 1.1059374834373638e-02  -3.4330179579974557e-02 1.2813745139223858e-02 6.1503123376008091e-03  -3.5077482509373856e-02 1.2562731530839893e-02 1.2562731530839935e-02  -4.8870134857799077e-02 1.3468131927296522e-02 6.5483371678749947e-03  -4.9602429143268158e-02 1.3258685246154981e-02 1.3258685246154990e-02  -6.3803011420620032e-02 1.3643257923286304e-02 6.6907624819988578e-03  -6.4434949041612719e-02 1.3484582629108165e-02 1.3484582629108120e-02  -2.2436592206894644e-03 7.6565640975456064e-03 1.9422202305061078e-03  -2.3253851822280730e-03 7.4324179664339001e-03 4.2952710148007681e-03  0.0000000000000000e+00 0.0000000000000000e+00 0.0000000000000000e+00  0.0000000000000000e+00 0.0000000000000000e+00 0.0000000000000000e+00  -1.0453968026336880e-02 1.3796303947428184e-02 3.8380816933979356e-03  -1.0804620172054653e-02 1.3436257620753976e-02 8.0926909707288355e-03  -2.2065186842338626e-02 1.7604808595200378e-02 5.1460276641914354e-03  -2.2666788052401639e-02 1.7200066065789704e-02 1.0664831380617041e-02  -3.5666373701164926e-02 1.9548672228939124e-02 5.9718884990600952e-03  -3.6384670509511975e-02 1.9168926780244133e-02 1.2199269719048883e-02  -5.0103763298656623e-02 2.0315410958678646e-02 6.4008849693226871e-03  -5.0803408914575958e-02 2.0002252091129658e-02 1.2963165660998394e-02  -6.4817099436154255e-02 2.0462250498309322e-02 6.5800889941371185e-03  -6.5420553221693156e-02 2.0227786050014386e-02 1.3266053759075826e-02  -2.6194561950544947e-03 1.1279036287586912e-02 1.8319422555360218e-03  -2.7068018663357670e-03 1.1006815689818789e-02 4.0438671235492763e-03  0.0000000000000000e+00 0.0000000000000000e+00 0.0000000000000000e+00  0.0000000000000000e+00 0.0000000000000000e+00 0.0000000000000000e+00  -1.1848277345337657e-02 1.9821474794919948e-02 3.6601288856063854e-03  -1.2201266286929363e-02 1.9356148471700585e-02 7.7081035939914819e-03  -2.3997397562211299e-02 2.4354592653356835e-02 4.9513475991709646e-03  -2.4580624675285958e-02 2.3821764807764084e-02 1.0252892411044398e-02  -3.7589036859331265e-02 2.6397134937019468e-02 5.7945613727097833e-03  -3.8273330406422112e-02 2.5899432924370226e-02 1.1833837922508276e-02  -5.1700120718370109e-02 2.7081621568867967e-02 6.2592729158224203e-03  -5.2364226819055143e-02 2.6675878038763909e-02 1.2678002388615444e-02  -6.6036455830222857e-02 2.7134810763017689e-02 6.4774614386156676e-03  -6.6611769819503536e-02 2.6834401637045955e-02 1.3063432322572297e-02  -3.9935070216797876e-03 1.6783922349129080e-02 1.7552999553755015e-03  -4.0963764195818871e-03 1.6500890524193762e-02 3.8661199002711761e-03  0.0000000000000000e+00 0.0000000000000000e+00 0.0000000000000000e+00  0.0000000000000000e+00 0.0000000000000000e+00 0.0000000000000000e+00  -1.4558323351913229e-02 2.6778265648373704e-02 3.5473560754751376e-03  -1.4906519324092890e-02 2.6237457765465787e-02 7.4636811515327913e-03  -2.6932448040876560e-02 3.1240533556907150e-02 4.8452649116148497e-03  -2.7488542762613560e-02 3.0612820787060731e-02 1.0022877031432675e-02  -3.9855598698097530e-02 3.2994821574800763e-02 5.7093101901958751e-03  -4.0511222606672691e-02 3.2412465147481917e-02 1.1656703007565711e-02  -5.3329303532129391e-02 3.3531387532153033e-02 6.2012978913961484e-03  -5.3973878662811503e-02 3.3061687157801958e-02 1.2558989012801836e-02  -6.7150288029555250e-02 3.3524204867022324e-02 6.4417959622204536e-03  -6.7717150292717285e-02 3.3179181539722019e-02 1.2991416980953909e-02  -7.7911823667475150e-03 2.4896320575828048e-02 1.7843745962699930e-03  -7.8190594391283827e-03 2.4621510806874195e-02 3.9610125404462779e-03  0.0000000000000000e+00 0.0000000000000000e+00 0.0000000000000000e+00  0.0000000000000000e+00 0.0000000000000000e+00 0.0000000000000000e+00  -1.9913832558357332e-02 3.3585418064604980e-02 3.7130736795033779e-03  -2.0187529013940511e-02 3.3033153718815308e-02 7.7686836025331026e-03  -2.9943442328808349e-02 3.7236243956582059e-02 5.0276373047499143e-03  -3.0477251978229751e-02 3.6599419982492901e-02 1.0374854344853329e-02  -4.1624851860869082e-02 3.8836147801236634e-02 5.8935169256359322e-03  -4.2302928970769850e-02 3.8246679549546546e-02 1.1999000342449067e-02  -5.4314654420693075e-02 3.9435055395766576e-02 6.3573424782172845e-03  -5.5004890977355995e-02 3.8960490534487094e-02 1.2843443837618672e-02  -6.7675791493735052e-02 3.9543452952499912e-02 6.5625105610822073e-03  -6.8293122481247248e-02 3.9194335245546913e-02 1.3207877175383465e-02  -4.3552091880672879e-03 -1.7499948529811675e-02 6.2530194101187283e-03  -9.9082072494295070e-03 -2.4985406238996786e-02 6.5316030005004092e-03  0.0000000000000000e+00 0.0000000000000000e+00 0.0000000000000000e+00  0.0000000000000000e+00 0.0000000000000000e+00 0.0000000000000000e+00  -1.5882861437013101e-02 -2.5204017545684132e-02 1.1730708879454470e-02  -2.0510490692537707e-02 -3.1877862143391389e-02 1.2113093175259623e-02  -2.8386074961010942e-02 -2.9870970582414308e-02 1.5447723404244329e-02  -3.1378153742183917e-02 -3.5667570108911709e-02 1.5894935362030512e-02  -4.1662149565015523e-02 -3.1700176292593633e-02 1.7668084556509502e-02  -4.3452888026931709e-02 -3.7537287686191197e-02 1.8069069120400912e-02  -5.5033546279100835e-02 -3.2599545878841819e-02 1.8868487136751572e-02  -5.6151783184121500e-02 -3.8483051359505908e-02 1.9190519012430303e-02  -6.8633319455914610e-02 -3.2927801375376563e-02 1.9438771517744619e-02  -6.9304060861421171e-02 -3.8939826290429087e-02 1.9675468553727794e-02  -3.0027355464772904e-03 -1.1480368911988665e-02 6.5168398507129783e-03  0.0000000000000000e+00 0.0000000000000000e+00 0.0000000000000000e+00  -1.3273291829585140e-02 -1.8751479079785929e-02 