<?xml version="1.0"?>
<VTKFile type="UnstructuredGrid"  version="0.1"  >
<UnstructuredGrid>
<Piece  NumberOfPoints="2197" NumberOfCells="10368">
<Points>
<DataArray  type="Float64"  NumberOfComponents="3"  format="ascii">0 0 0  0.09784449177557024 0.01826909624697694 0.01826909624697693  0.191289874074181 0.02433339172484061 0.02433339172484054  0.2833951850300054 0.02815129937733645 0.0281512993773364  0.3759442757951524 0.03044037220835683 0.0304403722083566  0.4691214562680416 0.03181852824296123 0.03181852824296129  0.5629153226521766 0.03262853925496974 0.0326285392549699  0.6572497480664379 0.03309249989993938 0.03309249989993937  0.7520230000046308 0.03335518789901706 0.03335518789901699  0.8471386476553286 0.03351215773240617 0.03351215773240617  0.9425019853019997 0.03362827831073583 0.03362827831073598  1.038055504848079 0.03374775294444533 0.03374775294444533  1.133688948336613 0.03387812157511075 0.03387812157511023  0 0.08333333333333333 0  0.093685806890971 0.09615887770911424 0.0195974478376103  0.1877612583644983 0.1030570942883389 0.0249079605234823  0.2808445373206528 0.1070336301453419 0.02852106671157682  0.3742346955452412 0.1092060282149524 0.03066213295750753  0.4679931132404463 0.1103815184660609 0.03195298948577326  0.5621824205600909 0.1109886021078839 0.03270781411645125  0.6567770281034422 0.1112758714045895 0.03313673440885135  0.7517125701306067 0.1113960184482247 0.03337703009947  0.8469194584512226 0.1114430185619187 0.03351941023775058  0.9423326839434447 0.1114784092746617 0.03362727733753846  1.037903288340095 0.1115393510234046 0.03374548430026978  1.133546996184513 0.1116590242038866 0.03387757467474648  0 0.1666666666666667 0  0.09232274719237697 0.1755642175432555 0.02068233312140851  0.1855613730280216 0.1817643570614941 0.02615916950900663  0.2786886023479491 0.1855455576818026 0.02953593375035145  0.3724775601293575 0.1876299678208837 0.03137937799299881  0.4666613510924658 0.1886850742738314 0.03243168974725841  0.5612141864954348 0.1891629789645 0.03301406618157084  0.6560877163368448 0.1893327660753312 0.03332241008765442  0.7512213342026806 0.1893549250882472 0.03348006886308191  0.8465594686732657 0.1893233910892719 0.03356589574627001  0.9420533354043573 0.1892963730847664 0.03363483295428179  1.03766471840518 0.1893101431990132 0.03372406914835965  1.133329232826092 0.189427257844515 0.0338354406014444  0 0.25 0  0.09195603125233247 0.2561829835576553 0.02143233050777894  0.1844004011338019 0.2608871054589831 0.02728204265266893  0.2772040240816469 0.2640131574878587 0.03060779194872485  0.3710274829351578 0.2658150363882177 0.03223392385513194  0.465426125824211 0.2667239923939477 0.03304953819385845  0.5602385308525432 0.2671089327033647 0.03343231385634191  0.6553479943781275 0.2672142994998868 0.03358786709369006  0.7506685084344091 0.267189646721562 0.03363425315268528  0.8461401951132635 0.2671223326811897 0.03363993810838953  0.9417201695982507 0.2670642768006841 0.03364934293233814  1.037374591196959 0.2670548566256045 0.03368802058892891  1.133063705998802 0.2671634989230054 0.03375879387489814  0 0.3333333333333333 0  0.09182349718139639 0.3373140097781448 0.02193110630195095  0.183802863988286 0.3404172372887128 0.02809640446648494  0.2762798954859835 0.3425991756881663 0.0314604127984331  0.3699997339359315 0.3439123890587689 0.03296653322637799  0.4644701563305967 0.3445882163333665 0.03360987619555237  0.5594348712750488 0.3448701877770547 0.03382739359846366  0.6547103366036073 0.3449372771118104 0.03384683179960193  0.7501753276633767 0.3449042117472071 0.03378893982478422  0.845756050329179 0.3448392145024718 0.03371643004542418  0.9414075920639108 0.3447825602306731 0.03366489498545688  1.037099377381653 0.3447700479639784 0.03365081031252202  1.132812104050555 0.3448556903275636 0.03367950076091129  0 0.4166666666666667 0  0.09177348120458324 0.4186894914394617 0.02222061714627161  0.1835142254804015 0.4202169287787217 0.0285805606661272  0.2757780367170695 0.4213234660040516 0.03199228827513543  0.3693962930814711 0.4220060617892828 0.03344367783281638  0.4638762433104483 0.4223630275833305 0.03398737858816794  0.5589145435436044 0.4225128300671144 0.03410045633256576  0.6542847091293181 0.4225476587303305 0.034029398196076  0.749838177887324 0.4225285973692577 0.03389969295434179  0.8454881655704876 0.4224927274722418 0.03377180983407618  0.9411856128864267 0.4224616318181844 0.03367592288499893  1.036902768134345 0.4224588330194496 0.03362358278156712  1.132632151852376 0.4225073635515001 0.03362173527923072  0 0.5 0  0.09175419076546962 0.5001707338255346 0.02232589429627927  0.1834171173115722 0.5001485322640621 0.02874700555977671  0.2756098997334854 0.500129861426273 0.03217449919073571  0.3691922324481551 0.5001139248135299 0.03360774829547033  0.463672841698345 0.5001038082207386 0.03411777611838021  0.5587340027855521 0.5001004976226581 0.03419512258448778  0.6541349449675494 0.500102114323873 0.0340928044310853  0.7497175491834126 0.5001065947024264 0.03393802067878897  0.8453904992409804 0.5001129725344728 0.03379059767134279  0.9411026250640839 0.5001196704752567 0.033678710847566  1.03682897289201 0.5001317811937653 0.03361323314447492  1.132563503164658 0.5001347686337067 0.03360033408833108  0 0.5833333333333334 0  0.09175010049773084 0.5816631833606174 0.02225420217803387  0.1834780440784256 0.5800848138222243 0.02860116407912001  0.2757476016357309 0.5789362209848162 0.03200000747033784  0.3693772375101512 0.5782216497318885 0.03344233373246174  0.4638673820837377 0.5778449136562223 0.0339813687508746  0.5589105866449164 0.5776897249771227 0.03409353985339918  0.6542817390962147 0.5776585507118572 0.03402321134724848  0.7498336633179263 0.5776865382114131 0.03389467245031324  0.8454815524837458 0.5777347156344586 0.03376786532031811  0.9411755332566606 0.5777786912529436 0.03367233115049782  1.036893333993843 0.5778037524565298 0.03362219707559138  1.132620127675012 0.5777616870298011 0.03362042318940453  0 0.6666666666666666 0  0.09176943288400352 0.6630694910867864 0.02199978612050654  0.1837269505381123 0.6598936612944829 0.02813450890120266  0.2762218938522484 0.6576629588718765 0.03147180804538637  0.3699678023718513 0.656313430570696 0.0329599635215343  0.4644560739384335 0.6556222600361249 0.03359685923609837  0.5594287246415757 0.6553374771887244 0.03381382989963377  0.6547042783068424 0.6552750999473783 0.03383549408199628  0.7501655601533893 0.6553167010474964 0.03378011474884198  0.8457419519456558 0.6553926089608487 0.03370971771973626  0.9413867985831145 0.6554606367668981 0.03365885017497701  1.0370794009284 0.6554898373540123 0.03364843556008477  1.13278753256966 0.6554120276640433 0.03367717032761913  0 0.75 0  0.09187518015608015 0.7442409996220154 0.02153745380920142  0.1842734098982581 0.739464118642268 0.02733785187803949  0.277137671857004 0.7362399530161375 0.03060792959245104  0.3709919259855743 0.7344133590597587 0.03221821168573302  0.4654147494810458 0.7334930468208782 0.03302825291053579  0.5602313377122857 0.7331090125665177 0.03341421517672549  0.6553375522189249 0.7330083621525429 0.03357401236202549  0.7506512127941365 0.7330401028166817 0.03362429303280209  0.8461163670968341 0.7331156722940086 0.03363283931585772  0.9416875292174902 0.7331830093870856 0.03364316748369789  1.037342430557993 0.7332011699724064 0.03368550466350804  1.133025837563806 0.7331028571296874 0.03375609875941395  0 0.8333333333333334 0  0.09215488093077288 0.8251154503802121 0.02087134815612405  0.1854223226623044 0.8185287655256429 0.02615392781457009  0.2786175335285238 0.8146971272323723 0.02951746670197965  0.3724689718690199 0.8125967322823803 0.0313451306050154  0.4666556513249801 0.8115434041599261 0.0324065543885876  0.5612052063549927 0.8110680613103685 0.03299589717404138  0.656069420526752 0.8109016982639855 0.03331043880012082  0.7511930153752636 0.810884235758863 0.03347253832195275  0.8465234228458903 0.810921161130446 0.03356135719430868  0.9420086861191957 0.810957046751587 0.03363175643684533  1.037617390977296 0.8109441094905572 0.03372264680600229  1.133276645138364 0.8108389664722048 0.03383288921353124  0 0.9166666666666666 0  0.09362636608581182 0.9046055456694648 0.01951253294033144  0.1876173481379981 0.8972122205088506 0.02488978405369367  0.2809103018092943 0.8932220089572269 0.028449971020161  0.3742538682279913 0.8910570087448373 0.03064057007028428  0.467995367971988 0.8898730173019846 0.03193818129957392  0.5621658395997059 0.8892618819361566 0.03270132557764976  0.656744559490292 0.8889723750329347 0.03313531767828143  0.7516679925594389 0.8888524726050253 0.03337835853272812  0.8468669192089641 0.8888072657477794 0.03352247670315193  0.9422736573856466 0.8887782925329254 0.03363101376940596  1.037839859729076 0.8887141947217647 0.0337468498889503  1.13348428516849 0.8886065979107401 0.03387849250459486  0 1 0  0.0976246391816292 0.982424924496744 0.01996486480445574  0.1916263127001713 0.975714125238806 0.02413638876620733  0.2834257945275698 0.9720676027502513 0.02818061765510031  0.3759436269146372 0.9697731882516604 0.03045175373995009  0.4690926416565953 0.9684104498984326 0.03181537202963908  0.5628574580269876 0.9676045805812791 0.03262831553515265  0.6571793415696346 0.967144949118565 0.03309298579224421  0.7519451216664405 0.9668866983979434 0.03335659827533416  0.8470559450184841 0.966734627470899 0.03351449079102618  0.9424239246126619 0.9666248515701814 0.03363181431382335  1.037974433196513 0.9665088919545046 0.03375016939285826  1.133614749198127 0.9663879847027894 0.03388232231695017  0 0 0.08333333333333333  0.09368580689097099 0.01959744783761021 0.09615887770911427  0.1877612583644983 0.0249079605234823 0.103057094288339  0.2808445373206529 0.02852106671157677 0.1070336301453421  0.3742346955452411 0.03066213295750746 0.1092060282149527  0.4679931132404463 0.03195298948577337 0.1103815184660609  0.5621824205600908 0.03270781411645132 0.1109886021078838  0.6567770281034424
[...]
<PointData  Vectors="f_35"> 
<DataArray  type="Float64"  Name="f_35"  NumberOfComponents="3" format="ascii">0.0000000000000000e+00 0.0000000000000000e+00 0.0000000000000000e+00  -1.6691637548956223e-02 -2.0930431105191265e-02 -2.0930431105191410e-02  -2.8736500643920464e-02 -2.8149860469354169e-02 -2.8149860469354422e-02  -3.8822444814321407e-02 -3.2628776327651113e-02 -3.2628776327651425e-02  -4.9392567548414187e-02 -3.5332588019963231e-02 -3.5332588019963591e-02  -6.0646801531186144e-02 -3.6975521625163620e-02 -3.6975521625163731e-02  -7.2592740418413931e-02 -3.7953376141972681e-02 -3.7953376141972486e-02  -8.5154061251741159e-02 -3.8522974119925300e-02 -3.8522974119925238e-02  -9.8220289133843772e-02 -3.8851720837337879e-02 -3.8851720837337747e-02  -1.1168444469030839e-01 -3.9051118122174787e-02 -3.9051118122174544e-02  -1.2543962765022620e-01 -3.9197209217973691e-02 -3.9197209217973476e-02  -1.3942228759143582e-01 -3.9341879138088939e-02 -3.9341879138088731e-02  -1.5350176028905260e-01 -3.9500517395107494e-02 -3.9500517395107043e-02  0.0000000000000000e+00 0.0000000000000000e+00 0.0000000000000000e+00  -1.1947558814892827e-02 -1.4609590837306261e-02 -2.2632345605572316e-02  -2.4540333556293661e-02 -2.2767949735381921e-02 -2.8905957029952859e-02  -3.5748993725602425e-02 -2.7459180417733445e-02 -3.3096627280418338e-02  -4.7318656769659087e-02 -3.0036739887847233e-02 -3.5610965358960633e-02  -5.9260404077114442e-02 -3.1448658172792895e-02 -3.7144765278424335e-02  -7.1680279707104361e-02 -3.2190839120544289e-02 -3.8053814056309844e-02  -8.4556960854241914e-02 -3.2552139837466292e-02 -3.8579872206719039e-02  -9.7823229005710804e-02 -3.2710757986911983e-02 -3.8880681132108151e-02  -1.1140281170936712e-01 -3.2777470995881096e-02 -3.9061711325698870e-02  -1.2522299531186312e-01 -3.2824653578557454e-02 -3.9196925009346503e-02  -1.3922701377757776e-01 -3.2897976489199926e-02 -3.9338741326359165e-02  -1.5331862525142537e-01 -3.3040884314132893e-02 -3.9495976469812934e-02  0.0000000000000000e+00 0.0000000000000000e+00 0.0000000000000000e+00  -1.0405574012105082e-02 -1.0123015457159752e-02 -2.3960175479351586e-02  -2.1997360941448146e-02 -1.7398490144075490e-02 -3.0443015212060345e-02  -3.3190873960460755e-02 -2.1845644060122540e-02 -3.4351650867302505e-02  -4.5217527952089956e-02 -2.4328943576148867e-02 -3.6498885102868119e-02  -5.7648757830214323e-02 -2.5605753635595193e-02 -3.7741050222817638e-02  -7.0496538676383405e-02 -2.6199242034820366e-02 -3.8438347200813246e-02  -8.3705031171857430e-02 -2.6422801867704175e-02 -3.8815979084205858e-02  -9.7210564804897606e-02 -2.6464921311745711e-02 -3.9014380252320430e-02  -1.1095171666939364e-01 -2.6437260017627244e-02 -3.9124882561546427e-02  -1.2487313610542702e-01 -2.6409575755483330e-02 -3.9210981146077580e-02  -1.3893034624457987e-01 -2.6427275202291541e-02 -3.9315378225909227e-02  -1.5304984900600482e-01 -2.6564298584068894e-02 -3.9442593901522313e-02  0.0000000000000000e+00 0.0000000000000000e+00 0.0000000000000000e+00  -1.0010911368592015e-02 -7.0386065806723984e-03 -2.4860400160986281e-02  -2.0670163309406343e-02 -1.2539528878090435e-02 -3.1799832383479588e-02  -3.1462138766291954e-02 -1.6199511510091948e-02 -3.5661112760554663e-02  -4.3503512934821326e-02 -1.8343691948368213e-02 -3.7551465010403025e-02  -5.6169408783006206e-02 -1.9446692061114785e-02 -3.8507719056486499e-02  -6.9314970638092360e-02 -1.9930122012871202e-02 -3.8962111835075183e-02  -8.2799456128294785e-02 -2.0076778142302312e-02 -3.9152453690887899e-02  -9.6527977731543715e-02 -2.0062428394443280e-02 -3.9213495285354116e-02  -1.1043191250613790e-01 -1.9991508007749400e-02 -3.9224499668389999e-02  -1.2446155846846556e-01 -1.9927033965433855e-02 -3.9236520588821759e-02  -1.3857734003451938e-01 -1.9917771664571655e-02 -3.9278427942955912e-02  -1.5273321442151319e-01 -2.0042861660578504e-02 -3.9354847476401708e-02  0.0000000000000000e+00 0.0000000000000000e+00 0.0000000000000000e+00  -9.8721184139463711e-03 -4.5316742589292160e-03 -2.5455195292365593e-02  -1.9993784261918338e-02 -8.1582672992287046e-03 -3.2777165394790475e-02  -3.0398836342277101e-02 -1.0705669305890286e-02 -3.6697228856831271e-02  -4.2298403820185584e-02 -1.2264802448766500e-02 -3.8450043932108928e-02  -5.5033155871154767e-02 -1.3084935458762787e-02 -3.9200886311178594e-02  -6.8347731757120445e-02 -1.3440548882899507e-02 -3.9455777031756671e-02  -8.2023338543260174e-02 -1.3537315992787001e-02 -3.9480011099342023e-02  -9.5922547711235359e-02 -1.3509835867985931e-02 -3.9412794194945741e-02  -1.0995873633788267e-01 -1.3439759308254079e-02 -3.9327134239742385e-02  -1.2407879751417590e-01 -1.3376351481515341e-02 -3.9263964849254755e-02  -1.3824646393479476e-01 -1.3363076935230670e-02 -3.9241670389002732e-02  -1.5243836408597167e-01 -1.3460887873672294e-02 -3.9267466523884159e-02  0.0000000000000000e+00 0.0000000000000000e+00 0.0000000000000000e+00  -9.8209393919312642e-03 -2.3058501290433076e-03 -2.5797694933504818e-02  -1.9670089369070463e-02 -4.0918821764747773e-03 -3.3356587518069088e-02  -2.9824482765728674e-02 -5.3815666124624592e-03 -3.7341693182362821e-02  -4.1594454229519580e-02 -6.1905299646076205e-03 -3.9033718952082373e-02  -5.4330554087201423e-02 -6.6229608704127625e-03 -3.9667078544066994e-02  -6.7723880566491992e-02 -6.8114980340525707e-03 -3.9796496485653109e-02  -8.1507139082501512e-02 -6.8616970226600934e-03 -3.9710639365165494e-02  -9.5510162804756590e-02 -6.8451118283003494e-03 -3.9555303541545954e-02  -1.0963017679464240e-01 -6.8060980214377960e-03 -3.9401380925444096e-02  -1.2380854855318964e-01 -6.7712467777267735e-03 -3.9283768676738773e-02  -1.3801174615982187e-01 -6.7684652300931880e-03 -3.9215197411231403e-02  -1.5222918509467723e-01 -6.8235827403035449e-03 -3.9204835632046756e-02  0.0000000000000000e+00 0.0000000000000000e+00 0.0000000000000000e+00  -9.8002431464808692e-03 -1.9970835310005163e-04 -2.5921649714219362e-02  -1.9560264063659925e-02 -1.7778088648441023e-04 -3.3556740621114203e-02  -2.9631266613040091e-02 -1.5652539375974163e-04 -3.7563112116807705e-02  -4.1355956464764164e-02 -1.3739027467115915e-04 -3.9234908002998392e-02  -5.4089764372983344e-02 -1.2411891850319304e-04 -3.9828377801955812e-02  -6.7507406463399644e-02 -1.1851266901829486e-04 -3.9914703861310977e-02  -8.1325685810114512e-02 -1.1883845089840974e-04 -3.9790718007878319e-02  -9.5362960228468310e-02 -1.2283806158214293e-04 -3.9604541728612268e-02  -1.0951087603556282e-01 -1.2938231130753445e-04 -3.9426526247626617e-02  -1.2370816631794393e-01 -1.3679992630161682e-04 -3.9289306935109201e-02  -1.3792432742515015e-01 -1.5030808787313746e-04 -3.9204776169808671e-02  -1.5215027271798057e-01 -1.5361226945398494e-04 -3.9181714070060367e-02  0.0000000000000000e+00 0.0000000000000000e+00 0.0000000000000000e+00  -9.7923219301847917e-03 1.8919322248452234e-03 -2.5836374198279975e-02  -1.9624978390970431e-02 3.7302748442088751e-03 -3.3384786782291669e-02  -2.9785724593890492e-02 5.0682114055913448e-03 -3.7354125122835542e-02  -4.1568850081488994e-02 5.9160226123012071e-03 -3.9034295721730478e-02  -5.4317925626605333e-02 6.3747429388557857e-03 -3.9660886758719489e-02  -6.7717827778655468e-02 6.5729299634888494e-03 -3.9788402944836487e-02  -8.1503156504894647e-02 6.6219320920016768e-03 -3.9702864283446666e-02  -9.5504974325016492e-02 6.5972711224636530e-03 -3.9548633795634842e-02  -1.0962291691613402e-01 6.5456171626490410e-03 -3.9395900757818715e-02  -1.2379764233796903e-01 6.4965150844836410e-03 -3.9278697980833464e-02  -1.3800195447703045e-01 6.4687775767213870e-03 -3.9212486304727720e-02  -1.5221720386243637e-01 6.5168142562443280e-03 -3.9203131478168583e-02  0.0000000000000000e+00 0.0000000000000000e+00 0.0000000000000000e+00  -9.8058596325678350e-03 4.0802170931890603e-03 -2.5533779166336080e-02  -1.9897690231997563e-02 7.7850708363104591e-03 -3.2829965106541292e-02  -3.0325418264231432e-02 1.0388854762073173e-02 -3.6716953951437196e-02  -4.2254713424698248e-02 1.1993571016777496e-02 -3.8445643624969272e-02  -5.5012664749922134e-02 1.2834601581433276e-02 -3.9186882660378536e-02  -6.8338234071565959e-02 1.3196940682692096e-02 -3.9439526543077717e-02  -8.2015480909293531e-02 1.3290850331617612e-02 -3.9465526283082794e-02  -9.5911412810155583e-02 1.3255495396515366e-02 -3.9400830902463262e-02  -1.0994317334610057e-01 1.3174145488844749e-02 -3.9317573085447657e-02  -1.2405619043263204e-01 1.3098203752073104e-02 -3.9255222653104375e-02  -1.3822560025728065e-01 1.3065981908046170e-02 -3.9236929324259227e-02  -1.5241368310633790e-01 1.3155330667780313e-02 -3.9264534887598963e-02  0.0000000000000000e+00 0.0000000000000000e+00 0.0000000000000000e+00  -9.9082072494294810e-03 6.5316030005002955e-03 -2.4985406238996685e-02  -2.0510490692537683e-02 1.2113093175259559e-02 -3.1877862143391340e-02  -3.1378153742183529e-02 1.5894935362030613e-02 -3.5667570108911528e-02  -4.3452888026931584e-02 1.8069069120401036e-02 -3.7537287686190746e-02  -5.6151783184120917e-02 1.9190519012430338e-02 -3.8483051359505568e-02  -6.9304060861420894e-02 1.9675468553727839e-02 -3.8939826290428567e-02  -8.2786673366770411e-02 1.9818928188559772e-02 -3.9134091124661492e-02  -9.6508237593613683e-02 1.9797990062451771e-02 -3.9199349729746757e-02  -1.1040521087037912e-01 1.9718720975118148e-02 -3.9213688785334246e-02  -1.2442555086003533e-01 1.9644382177755541e-02 -3.9226893403144988e-02  -1.3854318338328553e-01 1.9624756441473042e-02 -3.9272941566281867e-02  -1.5269458348846537e-01 1.9738512053489903e-02 -3.9351633710479839e-02  0.0000000000000000e+00 0.0000000000000000e+00 0.0000000000000000e+00  -1.0210010478514595e-02 9.2900477006289030e-03 -2.4181569405971892e-02  -2.1816300673645914e-02 1.7052599653580788e-02 -3.0432716980536685e-02  -3.3097369664769324e-02 2.1550125456008037e-02 -3.4337337281056528e-02  -4.5202875996697540e-02 2.4061246455457031e-02 -3.6459017161304959e-02  -5.7637392029028157e-02 2.5337279074213310e-02 -3.7710839920880361e-02  -7.0484909994494846e-02 2.5930551826030906e-02 -3.8414430995359829e-02  -8.3683344030916651e-02 2.6151526182716888e-02 -3.8798868149019325e-02  -9.7177873982482427e-02 2.6189545381846497e-02 -3.9002259563740246e-02  -1.1091036717503266e-01 2.6156832527048986e-02 -3.9116357983900944e-02  -1.2482258436758724e-01 2.6120152254329093e-02 -3.9204313769421996e-02  -1.3887893513996721e-01 2.6136609756015953e-02 -3.9311029422520245e-02  -1.5299441014697907e-01 2.6259344483921379e-02 -3.9439936165734733e-02  0.0000000000000000e+00 0.0000000000000000e+00 0.0000000000000000e+00  -1.1863648110376325e-02 1.3674585136118448e-02 -2.2466414905796185e-02  -2.4364164279067121e-02 2.2447848459351490e-02 -2.8888095834110734e-02  -3.5838663876313064e-02 2.7148527247433080e-02 -3.3015609688797881e-02  -4.7337581411126942e-02 2.9723291165549892e-02 -3.5586598661487279e-02  -5.9263443743694889e-02 3.1150066453165887e-02 -3.7124707354718366e-02  -7.1661129598508774e-02 3.1898810058503757e-02 -3.8042672585706240e-02  -8.4519045054129355e-02 3.2264234004332412e-02 -3.8574465486170724e-02  -9.7770788719158466e-02 3.2423947690268240e-02 -3.8878562486605178e-02  -1.1134093569909013e-01 3.2490135956532780e-02 -3.9061755045352205e-02  -1.2515293007800390e-01 3.2531746636009128e-02 -3.9197852007566480e-02  -1.3915215137072903e-01 3.2610026925829670e-02 -3.9337088564227768e-02  -1.5324499462398883e-01 3.2735355256278569e-02 -3.9494166500261559e-02  0.0000000000000000e+00 0.0000000000000000e+00 0.0000000000000000e+00  -1.6420712738117203e-02 2.0003547433633327e-02 -2.2817792631498517e-02  -2.9385389245007634e-02 2.8087498558382787e-02 -2.7931496847409459e-02  -3.8835834759458156e-02 3.2342050387558559e-02 -3.2684055298579963e-02  -4.9412847148891319e-02 3.5082766370632137e-02 -3.5344853577877408e-02  -6.0614867116627481e-02 3.6707904408602186e-02 -3.6969045964463848e-02  -7.2525819022207075e-02 3.7683543405706954e-02 -3.7948443709136769e-02  -8.5070193352410672e-02 3.8248769241413259e-02 -3.8519019350944587e-02  -9.8126788719857583e-02 3.8573551842834321e-02 -3.8849025135900044e-02  -1.1158485409295590e-01 3.8768369213458859e-02 -3.9049510664473368e-02  -1.2534317922326160e-01 3.8908218946648178e-02 -3.9196599210091367e-02  -1.3931876301094726e-01 3.9049601665044710e-02 -3.9339342632932692e-02  -1.5339934382295778e-01 3.9191842121284078e-02 -3.9496585341342101e-02  0.0000000000000000e+00 0.0000000000000000e+00 0.0000000000000000e+00  -1.1947558814892754e-02 -2.2632345605572386e-02 -1.4609590837306171e-02  -2.4540333556293661e-02 -2.8905957029952894e-02 -2.2767949735381932e-02  -3.5748993725602557e-02 -3.3096627280418268e-02 -2.7459180417733271e-02  -4.7318656769658990e-02 -3.5610965358960724e-02 -3.0036739887847053e-02  -5.9260404077114491e-02 -3.7144765278424342e-02 -3.1448658172792840e-02  -7.1680279707104541e-02 -3.8053814056309747e-02 -3.2190839120544497e-02  -8.4556960854241928e-02 -3.8579872206719018e-02 -3.2552139837466319e-02  -9.7823229005710985e-02 -3.8880681132108248e-02 -3.2710757986911754e-02  -1.1140281170936703e-01 -3.9061711325699050e-02 -3.2777470995881103e-02  -1.2522299531186337e-01 -3.9196925009346739e-02 -3.2824653578557246e-02  -1.3922701377757785e-01 -3.9338741326359741e-02 -3.2897976489199447e-02  -1.5331862525142559e-01 -3.9495976469813475e-02 -3.3040884314132428e-02  0.0000000000000000e+00 0.0000000000000000e+00 0.0000000000000000e+00  -6.6570215985289104e-03 -1.5603090891520817e-02 -1.5603090891520956e-02  -2.0079540340064903e-02 -2.2604334598432790e-02 -2.2604334598432894e-02  -3.2688512667711132e-02 -2.7511696202272951e-02 -2.7511696202272781e-02  -4.5358014361781801e-02 -2.9980620008002706e-02 -2.9980620008002612e-02  -5.7962564029699806e-02 -3.1400034775391869e-02 -3.1400034775391869e-02  -7.0843479037133672e-02 -3.2147301184702451e-02 -3.2147301184702402e-02  -8.4019080170975216e-02 -3.2518839655887956e-02 -3.2518839655887907e-02  -9.7471019703573913e-02 -3.2687556256040223e-02 -3.2687556256040036e-02  -1.1115669602384341e-01 -3.2763266094187990e-02 -3.2763266094187685e-02  -1.2503145185887996e-01 -3.2818296983432929e-02 -3.2818296983432568e-02  -1.3905078693538891e-01 -3.2899805715594588e-02 -3.2899805715594331e-02  -1.5315050253607701e-01 -3.3037880891785415e-02 -3.3037880891785110e-02  0.0000000000000000e+00 0.0000000000000000e+00 0.0000000000000000e+00  -4.9296956775178799e-03 -1.0042372304337693e-02 -1.6569451862553784e-02  -1.7511058695666496e-02 -1.6983985601741625e-02 -2.3843687608175245e-02  -3.0175552172840354e-02 -2.1509648664747319e-02 -2.8642033171008944e-02  -4.3351626166254188e-02 -2.4008977547490505e-02 -3.0722581674501499e-02  -5.6436302969884312e-02 -2.5362081795595143e-02 -3.1899585734017605e-02  -6.9738310674895762e-02 -2.6021314253304801e-02 -3.2459103196735554e-02  -8.3229583609110772e-02 -2.6301989043528415e-02 -3.2705217275850684e-02  -9.6906708398379379e-02 -2.6389157862386402e-02 -3.2789663569643329e-02  -1.1074304014091367e-01 -2.6396469629640602e-02 -3.2809453158311436e-02  -1.2471104005501775e-01 -2.6395886644507399e-02 -3.2827153003028603e-02  -1.3878337865762186e-01 -2.6435993542412120e-02 -3.2882077161318357e-02  -1.5291120918401352e-01 -2.6569601962008114e-02 -3.2997923296888186e-02  0.0000000000000000e+00 0.0000000000000000e+00 0.0000000000000000e+00  -4.4707616473898459e-03 -6.9143513012192058e-03 -1.7381657326317270e-02  -1.6061921981627644e-02 -1.2130793274931483e-02 -2.5136000022393381e-02  -2.8466862207905574e-02 -1.5760075031006467e-02 -2.9869093356842073e-02  -4.1716142173662971e-02 -1.7941295834364334e-02 -3.1712278520011988e-02  -5.5050914180491392e-02 -1.9123322400621826e-02 -3.2625365849423854e-02  -6.8646059057389824e-02 -1.9691715158523828e-02 -3.2950445707186291e-02  -8.2397635307490238e-02 -1.9913286655492343e-02 -3.3018742728560632e-02  -9.6282648568113499e-02 -1.9959448309779328e-02 -3.2973489892055070e-02  -1.1026954318651681e-01 -1.9935912375212000e-02 -3.2901114657141753e-02  -1.2433724153502343e-01 -1.9908885140371532e-02 -3.2852348191385945e-02  -1.3846751079553390e-01 -1.9928348251983821e-02 -3.2857031534443949e-02  -1.5263513213589100e-01 -2.0056175233863677e-02 -3.2933973911300637e-02  0.0000000000000000e+00 0.0000000000000000e+00 0.0000000000000000e+00  -4.1989448907512562e-03 -4.4237780058708452e-03 -1.7938123684781850e-02  -1.5261165637841152e-02 -7.8288887397175641e-03 -2.6090303745350575e-02  -2.7395713866516423e-02 -1.0345270664629461e-02 -3.0875153934000945e-02  -4.0559308541669753e-02 -1.1923609057404571e-02 -3.2594878281648455e-02  -5.3992041287050936e-02 -1.2802583645732614e-02 -3.3302897418777615e-02  -6.7756300817404663e-02 -1.3228570172326929e-02 -3.3431183279347271e-02  -8.1688580876232209e-02 -1.3389662980670895e-02 -3.3336462998473898e-02  -9.5731973362474035e-02 -1.3415871469900082e-02 -3.3166034056972236e-02  -1.0984045134715228e-01 -1.3388558048218799e-02 -3.3000817874902388e-02  -1.2399120622472556e-01 -1.3359589898518945e-02 -3.2882514331479942e-02  -1.3817207754950081e-01 -1.3371265928464318e-02 -3.2834251260318879e-02  -1.5237936527724882e-01 -1.3475542570504217e-02 -3.2873161738123345e-02  0.0000000000000000e+00 0.0000000000000000e+00 0.0000000000000000e+00  -4.0730409419718200e-03 -2.2681609528213834e-03 -1.8256757662692323e-02  -1.4863601544600541e-02 -3.9158951171655533e-03 -2.6657181108575428e-02  -2.6804479869533781e-02 -5.1891797955753742e-03 -3.1510685865900473e-02  -3.9880967108480006e-02 -6.0030750815005442e-03 -3.3173350819481945e-02  -5.3338108367008946e-02 -6.4650066229419278e-03 -3.3763086888433463e-02  -6.7183593338614511e-02 -6.6909898200651265e-03 -3.3767395294686572e-02  -8.1218441206268713e-02 -6.7767881974933383e-03 -3.3563314552511388e-02  -9.5357925955603648e-02 -6.7906670540720535e-03 -3.3306028692348451e-02  -1.0954314958881257e-01 -6.7761696254686156e-03 -3.3074505251450274e-02  -1.2374746473931648e-01 -6.7615106489865599e-03 -3.2905505764220078e-02  -1.3796231342020135e-01 -6.7716786273975156e-03 -3.2818712529551639e-02  -1.5219788217429805e-01 -6.8343353831944384e-03 -3.2830484041407405e-02  0.0000000000000000e+00 0.0000000000000000e+00 0.0000000000000000e+00  -4.0284464322150933e-03 -2.4679411199914189e-04 -1.8372702376626936e-02  -1.4726508613539399e-02 -1.7480897448360770e-04 -2.6853506240884239e-02  -2.6603220067248880e-02 -1.6484130789186287e-04 -3.1729807689856164e-02  -3.9650190746096783e-02 -1.4347285846226133e-04 -3.3372616445307070e-02  -5.3113267399683507e-02 -1.2908572720621365e-04 -3.3922423100682553e-02  -6.6984390058775906e-02 -1.2240700329801594e-04 -3.3884127777458459e-02  -8.1052919387484990e-02 -1.2153960057909149e-04 -3.3642089435712466e-02  -9.5224139753743733e-02 -1.2459894299370272e-04 -3.3354491702041161e-02  -1.0943483187595537e-01 -1.3022972351681690e-04 -3.3099573131357869e-02  -1.2365680572911310e-01 -1.3741644091906763e-04 -3.2912518364497503e-02  -1.3788344502741720e-01 -1.4776013890043844e-04 -3.2812278509624933e-02  -1.5212910636915597e-01 -1.5733147087925326e-04 -3.2814498847992188e-02  0.0000000000000000e+00 0.0000000000000000e+00 0.0000000000000000e+00  -4.0488433895620110e-03 1.7590616217094373e-03 -1.8293680227543734e-02  -1.4816820656943456e-02 3.5593438114309085e-03 -2.6681732699259653e-02  -2.6765564398640647e-02 4.8584595566707094e-03 -3.1520442940363137e-02  -3.9854961047808765e-02 5.7175859429988889e-03 -3.3171390109123344e-02  -5.3324797812657421e-02 6.2077854421174168e-03 -3.3754891149636847e-02  -6.7176254000780256e-02 6.4456445918734569e-03 -3.3758093595430250e-02  -8.1213345234441250e-02 6.5324925015517021e-03 -3.3554672635688551e-02  -9.5351876318074860e-02 6.5399757097796968e-03 -3.3298958193185978e-02  -1.0953504013406154e-01 6.5144113810689970e-03 -3.3068843913060801e-02  -1.2373689080988715e-01 6.4858840581530170e-03 -3.2900895541403179e-02  -1.3795128021557418e-01 6.4766455814129868e-03 -3.2815697496564274e-02  -1.5218641926114712e-01 6.5211290248835272e-03 -3.2828044673615393e-02  0.0000000000000000e+00 0.0000000000000000e+00 0.0000000000000000e+00  -4.1445385107656812e-03 3.86704339963415