<?xml version="1.0"?>
<VTKFile type="UnstructuredGrid"  version="0.1"  >
<UnstructuredGrid>
<Piece  NumberOfPoints="663" NumberOfCells="2707">
<Points>
<DataArray  type="Float64"  NumberOfComponents="3"  format="ascii">0.5579601207748235 0.03132319326660672 0.03132319326660667  0.6508146280940832 0.03185272547556774 0.03185272547556776  0.6501765898774444 0.1103464524440058 0.03190828199521355  0.6496022825293229 0.1103262921761547 0.1103262921761547  0.6501765898774444 0.0319082819952136 0.1103464524440058  0.5570379052538903 0.03141961706245235 0.1100037528122083  0.5570379052538903 0.1100037528122083 0.03141961706245238  0.5561933216119621 0.1099799409861616 0.1099799409861616  0.7440958508812914 0.03218409956507278 0.03218409956507278  0.7436335634583803 0.1105137317982885 0.03221104924862109  0.7432235589481444 0.1104992836473576 0.1104992836473576  0.7436335634583803 0.03221104924862109 0.1105137317982885  0.8377331020977609 0.03241720629854907 0.03241720629854907  0.8373641805113698 0.1106108848866954 0.03242385643945449  0.837038871900029 0.1106030514660753 0.1106030514660753  0.8373641805113697 0.03242385643945448 0.1106108848866955  0.9316482599942142 0.03262744120996219 0.03262744120996219  0.9313155443908623 0.1107156660721499 0.03262068145622436  0.9310189155004822 0.1107148308192707 0.1107148308192707  0.9313155443908622 0.03262068145622436 0.1107156660721499  1.025764338998676 0.03286860071465123 0.03286860071465128  1.025431384426988 0.1108856836659055 0.03285758580173764  1.025127419775276 0.1108935183148958 0.1108935183148958  1.025431384426988 0.03285758580173762 0.1108856836659055  1.119951341337436 0.03317483849294862 0.03317483849294873  1.119618524842273 0.1111841178539872 0.03315739743033845  1.119303052644453 0.1111800097702064 0.1111800097702064  1.119618524842273 0.0331573974303384 0.1111841178539873  0.6493056621177894 0.1886711911557618 0.03212004321817802  0.6487870019784945 0.1885774530184099 0.110498797375009  0.5558931828516109 0.1884414181887495 0.03175707608092351  0.5551110080077248 0.1883060397246936 0.1102589535085868  0.7429596662636794 0.1887342125526858 0.03232885130255744  0.7425974975977417 0.1886771132257651 0.1105942476012442  0.8368195935647924 0.1887397928955618 0.03247108649750012  0.8365356832040093 0.188714268680279 0.1106417824697883  0.9308468280486246 0.1887658440596191 0.03261495177972813  0.9305879527046383 0.1887678691150681 0.1107129072156797  1.024999400798726 0.1888755449771451 0.03280806856871118  1.024735469154454 0.1889020790628367 0.1108586270570582  1.119208853751202 0.1891702182031828 0.03306779739789029  1.118934674870764 0.1891874155600255 0.1111126201448164  0.6483947561564699 0.2667896885250913 0.0324100376800217  0.6479416846385102 0.26665884802645 0.1107693096204457  0.5547702750698972 0.266618812003573 0.03219678640078279  0.5540590070247786 0.2664319102687702 0.1106698561557254  0.7422226095303031 0.2668056304054248 0.03249869257352882  0.7419181316351482 0.2667250981719251 0.1107530444058417  0.8362086257740886 0.2667697061889377 0.03254544329498783  0.8359757150946449 0.2667328071154297 0.11071341302679  0.9303161342438442 0.2667542088288348 0.03261127702913977  0.930105075296139 0.2667558149942257 0.11071552130662  1.024509539625211 0.2668260342222277 0.032732721039168  1.024297224069565 0.2668601017880986 0.1108031703878176  1.118746277340695 0.2670971190238787 0.03292306657968078  1.118532064685752 0.2671302054234851 0.1110051661997545  0.6476187070675173 0.3447345742180503 0.0326854122942114  0.6472252340510929 0.3446162744712752 0.1110362790394129  0.5538605311032843 0.3446061467015943 0.03259921681314325  0.5532114327170313 0.3444405290933087 0.1110600630474829  0.7415715726448073 0.3447401367522578 0.03266515027291122  0.7413209220008098 0.3446660544904502 0.1109152699680617  0.8356550422795616 0.3447035975064542 0.03262078331366574  0.8354707776076047 0.3446687570965208 0.1107895837226046  0.9298265272991331 0.3446816279550503 0.0326081728538587  0.9296619986615292 0.3446823392336407 0.110720409423455  1.024053687502621 0.3447336276514908 0.03265511740332883  1.023891544230919 0.3447629435350537 0.1107470847115066  1.118315579709755 0.344947560073297 0.032773418145784  1.118160917641679 0.3449836200715879 0.1108969669992702  0.647098107782945 0.4225662512993568 0.03287654923533079  0.6467457460920277 0.4224976005722608 0.1112240422582286  0.5532719614257552 0.4224871526133092 0.03287244648123627  0.55266419966608 0.4223926390874791 0.1113282657225824  0.7411226071733281 0.4225779485014975 0.03278263686432311  0.7409099262950051 0.422534238069883 0.1110315014464657  0.8352651760592452 0.4225665731348057 0.03267444622106652  0.8351157660825667 0.4225453482985481 0.1108449726136763  0.9294763163496867 0.4225626629481808 0.03260505032791785  0.9293455329909066 0.4225625493951891 0.1107239399105936  1.023725669526608 0.4226041365179567 0.0325975963523162  1.023599428170997 0.4226191816418319 0.1107059852220736  1.118004713087809 0.4227287109402486 0.03266313183727764  1.117893479742443 0.422755237854734 0.1108179658160369  0.6487870019784945 0.110498797375009 0.1885774530184099  0.6493056621177893 0.03212004321817803 0.1886711911557618  0.5558931828516109 0.03175707608092349 0.1884414181887495  0.5551110080077248 0.1102589535085868 0.1883060397246936  0.7425974975977417 0.1105942476012441 0.1886771132257651  0.7429596662636793 0.03232885130255742 0.1887342125526858  0.8365356832040093 0.1106417824697883 0.188714268680279  0.8368195935647924 0.03247108649750011 0.1887397928955618  0.9305879527046385 0.1107129072156797 0.1887678691150681  0.9308468280486246 0.03261495177972814 0.1887658440596191  1.024735469154454 0.1108586270570581 0.1889020790628368  1.024999400798726 0.03280806856871114 0.1888755449771451  1.118934674870764 0.1111126201448163 0.1891874155600255  1.119208853751202 0.03306779739789025 0.1891702182031829  0.6479811053715265 0.1887043031413977 0.1887043031413977  0.5540241772464056 0.1885093302809025 0.1885093302809024  0.7419880140789649 0.1887483182475817 0.1887483182475817  0.8360534980499835 0.188745789820212 0.188745789820212  0.9301829185107894 0.1887711884894568 0.1887711884894568  1.024375815764883 0.1888803277713843 0.1888803277713843  1.118607577499606 0.1891351832918924 0.1891351832918925  0.6471312720062474 0.2667424009006439 0.1889287685859776  0.5529526601948423 0.2665631265736121 0.1888449271294943  0.7413140391382784 0.2667733348617344 0.1888825616849167  0.8355060187044124 0.266756063186655 0.1888093151138908  0.9297191352515624 0.2667611713622447 0.1887790824362623  1.023964242244079 0.2668473658874926 0.188842078360361  1.118243112200175 0.2670900018354781 0.1890593887947652  0.6464073121703393 0.3446637361074177 0.1891570430735587  0.5520870441642965 0.3445134753693578 0.1891753746761992  0.740717484928027 0.3446942219026966 0.189023072575299  0.8350080750810032 0.3446832870990214 0.1888778713670825  0.9292889244945872 0.3446867161655438 0.1887891816325821  1.023578360211588 0.3447557844255227 0.1888046792514042  1.117902227362672 0.3449549305532125 0.1889888029106021  0.6459236183860291 0.4225198027101453 0.1893199626106432  0.5515302841422082 0.4224260807564728 0.1894064950498063  0.7403068352297402 0.4225476553721039 0.1891250229518603  0.8346572360055079 0.4225524562030181 0.1889283187622803  0.9289803075945753 0.4225644999662179 0.1887969022912915  1.023298754435549 0.4226153434358944 0.1887780539651375  1.117654378277181 0.4227383794279922 0.1889393081513303  0.6479416846385101 0.1107693096204457 0.26665884802645  0.6483947561564699 0.03241003768002169 0.2667896885250913  0.5547702750698972 0.03219678640078283 0.266618812003573  0.5540590070247786 0.1106698561557254 0.2664319102687702  0.7419181316351482 0.1107530444058417 0.2667250981719251  0.7422226095303032 0.03249869257352879 0.2668056304054248  0.835975715094645 0.11071341302679 0.2667328071154297  0.8362086257740886 0.03254544329498781 0.2667697061889377  0.9301050752961388 0.11071552130662 0.2667558149942257  0.9303161342438442 0.03261127702913977 0.2667542088288348  1.024297224069565 0.1108031703878176 0.2668601017880986  1.024509539625211 0.03273272103916797 0.2668260342222277  1.118532064685752 0.1110051661997545 0.2671302054234851  1.118746277340695 0.03292306657968075 0.2670971190238787  0.6471312720062474 0.1889287685859776 0.2667424009006439  0.5529526601948425 0.1888449271294943 0.2665631265736121  0.7413140391382782 0.1888825616849167 0.2667733348617345  0.8355060187044123 0.1888093151138908 0.266756063186655  0.9297191352515624 0.1887790824362622 0.2667611713622448  1.023964242244079 0.188842078360361 0.2668473658874926  1.118243112200175 0.1890593887947652 0.2670900018354782  0.6462551532680665 0.2669106845701208 0.2669106845701208  0.5518402463126043 0.2668093803842381 0.2668093803842382  0.7406261061233123 0.2668760178585864 0.2668760178585864  0.834954452703969 0.2668065210013405 0.2668065210013405  0.9292595772888702 0.2667699623885041 0.2667699623885041  1.023564986946254 0.2668212180932014 0.2668212180932015  1.117900776360114 0.2670363684956406 0.2670363684956406  0.6455034399504469 0.3447725478164733 0.267087713373204  0.5509361007321338 0.3446699014138223 0.2670618744486161  0.7400120479814416 0.3447616966849295 0.2669866099449345  0.8344475603862392 0.34471711244957 0.2668622052990332  0.9288275443210995 0.3446930416993076 0.266781034336966  1.02318398644814 0.3447385187609538 0.2667970537965972  1.117573495602552 0.3449191753315631 0.2669904254985928  0.6450014576342767 0.4225716051729471 0.2672151506946862  0.5503554049241008 0.4225000069608542 0.2672407142504819  0.7395890668116267 0.4225798772967816 0.2670673702195188  0.8340896563081528 0.4225684056646472 0.2669033582570589  0.9285163476083469 0.422566805856917 0.2667895866229893  1.022906132715376 0.4226057347544158 0.2667805616400401  1.117333480867803 0.4227192793420978 0.2669597614905492  0.6472252340510929 0.1110362790394129 0.3446162744712752  0.64761870
[...]
<PointData  Vectors="f_35"> 
<DataArray  type="Float64"  Name="f_35"  NumberOfComponents="3" format="ascii">-7.6619608694036251e-02 -4.5511298660088406e-02 -4.5511298660088489e-02  -8.9604561106031891e-02 -4.6322208055647358e-02 -4.6322208055647414e-02  -8.8928706754807157e-02 -3.9271380601872727e-02 -4.6415816509667987e-02  -8.8316584509639084e-02 -3.9235176435221508e-02 -3.9235176435221480e-02  -8.8928706754807255e-02 -4.6415816509667987e-02 -3.9271380601872748e-02  -7.5580484538110754e-02 -4.5666436486111385e-02 -3.8740065428664379e-02  -7.5580484538110906e-02 -3.8740065428664386e-02 -4.5666436486111441e-02  -7.4624026027358320e-02 -3.8698709855088817e-02 -3.8698709855088866e-02  -1.0311638731200730e-01 -4.6797387432071832e-02 -4.6797387432071853e-02  -1.0267703937491955e-01 -3.9515438198235615e-02 -4.6850891475853883e-02  -1.0228552670498917e-01 -3.9487097669377816e-02 -3.9487097669377948e-02  -1.0267703937491947e-01 -4.6850891475853806e-02 -3.9515438198235588e-02  -1.1704583592002003e-01 -4.7082247059353162e-02 -4.7082247059353238e-02  -1.1675392307366242e-01 -3.9619208801087900e-02 -4.7110291853523778e-02  -1.1649706535862660e-01 -3.9599101465512314e-02 -3.9599101465512411e-02  -1.1675392307366235e-01 -4.7110291853523660e-02 -3.9619208801087998e-02  -1.3128745693138985e-01 -4.7276689674246086e-02 -4.7276689674246246e-02  -1.3108732228766520e-01 -3.9676330343881072e-02 -4.7290263062326962e-02  -1.3091013459661230e-01 -3.9663340667247339e-02 -3.9663340667247436e-02  -1.3108732228766512e-01 -4.7290263062326816e-02 -3.9676330343881204e-02  -1.4576904022869600e-01 -4.7440763808691930e-02 -4.7440763808692069e-02  -1.4561915388713731e-01 -3.9733649051980936e-02 -4.7448749651705140e-02  -1.4548319092119311e-01 -3.9730069074315533e-02 -3.9730069074315623e-02  -1.4561915388713725e-01 -4.7448749651705070e-02 -3.9733649051980999e-02  -1.6038541476370557e-01 -4.7557893917220040e-02 -4.7557893917220123e-02  -1.6025782320657048e-01 -3.9828407101416503e-02 -4.7571067764694046e-02  -1.6014595886617186e-01 -3.9824207103982712e-02 -3.9824207103982864e-02  -1.6025782320657045e-01 -4.7571067764693914e-02 -3.9828407101416642e-02  -8.8026046320421270e-02 -3.1981693368886101e-02 -4.6759755713463393e-02  -8.7466224872355267e-02 -3.1822161883068315e-02 -3.9505590001772138e-02  -7.4321997310916529e-02 -3.1633870988093657e-02 -4.6187970535350571e-02  -7.3429821840897705e-02 -3.1413543501227631e-02 -3.9116182548968148e-02  -1.0203731261027196e-01 -3.2068691062784489e-02 -4.7066315476838309e-02  -1.0168638707467291e-01 -3.1959989127919232e-02 -3.9652628473939598e-02  -1.1629847011142139e-01 -3.2044251350176349e-02 -4.7234880107635061e-02  -1.1607189792541985e-01 -3.1975435867082264e-02 -3.9691682987229776e-02  -1.3075448074744600e-01 -3.1998866727959603e-02 -4.7352625265327138e-02  -1.3059898087144411e-01 -3.1959783784475018e-02 -3.9707412964430901e-02  -1.4535781208599741e-01 -3.1983894221708352e-02 -4.7467191431480767e-02  -1.4524058928437522e-01 -3.1968725476755701e-02 -3.9743884752487829e-02  -1.6003755230175573e-01 -3.2074122379299463e-02 -4.7564601653370127e-02  -1.5994201877040040e-01 -3.2058800156202903e-02 -3.9822862941366527e-02  -8.7091639533049353e-02 -2.4385878170305516e-02 -4.7227066761714606e-02  -8.6592072657725144e-02 -2.4164504938646830e-02 -3.9930176721276280e-02  -7.3101498438616394e-02 -2.4145839036997133e-02 -4.6861275903910142e-02  -7.2279689104899167e-02 -2.3843976455254160e-02 -3.9730814135822357e-02  -1.0133934576423066e-01 -2.4393232785190868e-02 -4.7371814047848286e-02  -1.0103647889894014e-01 -2.4241197489866237e-02 -3.9928142505015002e-02  -1.1577921176014380e-01 -2.4307892692182358e-02 -4.7418118595042545e-02  -1.1558906115212179e-01 -2.4211056183041507e-02 -3.9855369170170220e-02  -1.3036012878832537e-01 -2.4213881393073566e-02 -4.7445262316642783e-02  -1.3023089918048672e-01 -2.4158906078968777e-02 -3.9790273795763581e-02  -1.4504130075160213e-01 -2.4166734556072003e-02 -4.7492123472222328e-02  -1.4494455887341451e-01 -2.4142934639914602e-02 -3.9772806321943258e-02  -1.5977387643265020e-01 -2.4247722041491844e-02 -4.7551862301073874e-02  -1.5969944911488981e-01 -2.4230247843686673e-02 -3.9825319463573525e-02  -8.6299585391391237e-02 -1.6519933878761963e-02 -4.7671457315652727e-02  -8.5854679358822933e-02 -1.6318462716194863e-02 -4.0350469335244311e-02  -7.2116006112655368e-02 -1.6358274787346791e-02 -4.7478260770682845e-02  -7.1355476537706228e-02 -1.6089399325158921e-02 -4.0316096634110135e-02  -1.0072505753078316e-01 -1.6501055385068689e-02 -4.7670978546556268e-02  -1.0046693490098879e-01 -1.6360434417317309e-02 -4.0209841576577247e-02  -1.1530805554363550e-01 -1.6411699246608735e-02 -4.7601866560258790e-02  -1.1515237319577960e-01 -1.6320824602827341e-02 -4.0027727115024961e-02  -1.2999339974777629e-01 -1.6318438536326772e-02 -4.7539869773044655e-02  -1.2988906825879881e-01 -1.6266189444552926e-02 -3.9880431598667124e-02  -1.4474435581810047e-01 -1.6270781116745663e-02 -4.7519811848210476e-02  -1.4466570733885878e-01 -1.6246128689202294e-02 -3.9807360222481256e-02  -1.5953005415186777e-01 -1.6332609885833439e-02 -4.7544926851317545e-02  -1.5947285459010488e-01 -1.6316445595573392e-02 -3.9834921332413668e-02  -8.5772616945832880e-02 -8.4670944097515743e-03 -4.7982563259281449e-02  -8.5365825620712932e-02 -8.3475112803645998e-03 -4.0648420009829433e-02  -7.1481992623560267e-02 -8.3858541027469827e-03 -4.7900070812256362e-02  -7.0762463642082746e-02 -8.2295222495129914e-03 -4.0720961964479767e-02  -1.0030556203775186e-01 -8.4489823781969189e-03 -4.7884359169545448e-02  -1.0007935925468819e-01 -8.3640358606171354e-03 -4.0413571257554903e-02  -1.1497945351029658e-01 -8.3924774860478502e-03 -4.7734874390313230e-02  -1.1484871329373664e-01 -8.3365521800463256e-03 -4.0154512459426056e-02  -1.2973334198901276e-01 -8.3343244708510098e-03 -4.7609160443799904e-02  -1.2964720021419096e-01 -8.3016650798656381e-03 -3.9947879287986605e-02  -1.4453282739114315e-01 -8.3062025335099605e-03 -4.7541487075007535e-02  -1.4446665601731010e-01 -8.2890813952772504e-03 -3.9834468056724200e-02  -1.5935743764563798e-01 -8.3386174484461600e-03 -4.7542376054802438e-02  -1.5931121508532239e-01 -8.3287227135970913e-03 -3.9844476850222348e-02  -8.7466224872355405e-02 -3.9505590001772090e-02 -3.1822161883068377e-02  -8.8026046320421297e-02 -4.6759755713463337e-02 -3.1981693368886122e-02  -7.4321997310916404e-02 -4.6187970535350599e-02 -3.1633870988093650e-02  -7.3429821840897691e-02 -3.9116182548968120e-02 -3.1413543501227666e-02  -1.0168638707467278e-01 -3.9652628473939529e-02 -3.1959989127919322e-02  -1.0203731261027206e-01 -4.7066315476838295e-02 -3.2068691062784545e-02  -1.1607189792542007e-01 -3.9691682987229790e-02 -3.1975435867082319e-02  -1.1629847011142126e-01 -4.7234880107634894e-02 -3.2044251350176425e-02  -1.3059898087144434e-01 -3.9707412964430831e-02 -3.1959783784475150e-02  -1.3075448074744603e-01 -4.7352625265327020e-02 -3.1998866727959679e-02  -1.4524058928437511e-01 -3.9743884752487725e-02 -3.1968725476755784e-02  -1.4535781208599741e-01 -4.7467191431480656e-02 -3.1983894221708518e-02  -1.5994201877040060e-01 -3.9822862941366402e-02 -3.2058800156203070e-02  -1.6003755230175556e-01 -4.7564601653370016e-02 -3.2074122379299595e-02  -8.6619653568127203e-02 -3.2010251268718891e-02 -3.2010251268718905e-02  -7.2230640175941718e-02 -3.1703723504868754e-02 -3.1703723504868789e-02  -1.0109459160571913e-01 -3.2074421808257411e-02 -3.2074421808257488e-02  -1.1565478631672717e-01 -3.2038275069352987e-02 -3.2038275069353056e-02  -1.3029639596720635e-01 -3.1988433194101523e-02 -3.1988433194101641e-02  -1.4500860593630358e-01 -3.1975547985598790e-02 -3.1975547985598908e-02  -1.5975392050426457e-01 -3.2054618738741728e-02 -3.2054618738741894e-02  -8.5735067454057276e-02 -2.4279300098250911e-02 -3.2352434440634140e-02  -7.1060226029350554e-02 -2.4020557813816203e-02 -3.2194042726935899e-02  -1.0044030935280820e-01 -2.4310453588175508e-02 -3.2297873692345519e-02  -1.1517093997999953e-01 -2.4247923653705563e-02 -3.2171830322338779e-02  -1.2992975904436774e-01 -2.4173880729677081e-02 -3.2057523292521713e-02  -1.4471769039221472e-01 -2.4143356125918770e-02 -3.2003116759552912e-02  -1.5952450599926274e-01 -2.4224006547231537e-02 -3.2065223056559788e-02  -8.4985542304934575e-02 -1.6377118062947602e-02 -3.2703549409654420e-02  -7.0117736449285595e-02 -1.6180092812083390e-02 -3.2680530309861282e-02  -9.9863321728439175e-02 -1.6395037318121017e-02 -3.2534055735138838e-02  -1.1472982844063494e-01 -1.6337950221617874e-02 -3.2317326142973321e-02  -1.2958574487773925e-01 -1.6271041012448938e-02 -3.2136029786541884e-02  -1.4444010821336081e-01 -1.6242554716475354e-02 -3.2038395044346440e-02  -1.5930635027007306e-01 -1.6309338638381056e-02 -3.2084752388699067e-02  -8.4489730237773467e-02 -8.3711990613007294e-03 -3.2956492033806392e-02  -6.9515257988572721e-02 -8.2670773490107000e-03 -3.3023374928332530e-02  -9.9470936606608953e-02 -8.3772113571924690e-03 -3.2707357283915793e-02  -1.1442286063944851e-01 -8.3419579830873170e-03 -3.2425898147254377e-02  -1.2934171176321371e-01 -8.3012510736254728e-03 -3.2195759399939565e-02  -1.4424104440930977e-01 -8.2846587703749187e-03 -3.2066633702967431e-02  -1.5914956550870116e-01 -8.3224499047761420e-03 -3.2101977184932733e-02  -8.6592072657725061e-02 -3.9930176721276175e-02 -2.4164504938646886e-02  -8.7091639533049367e-02 -4.7227066761714509e-02 -2.4385878170305547e-02  -7.3101498438616463e-02 -4.6861275903910142e-02 -2.4145839036997168e-02  -7.2279689104899250e-02 -3.9730814135822357e-02 -2.3843976455254177e-02  -1.0103647889894009e-01 -3.9928142505014946e-02 -2.4241197489866272e-02  -1.0133934576423062e-01 -4.7371814047848161e-02 -2.4393232785190962e-02  -1.1558906115212166e-01 -3.9855369170170137e-02 -2.4211056183041573e-02  -1.1577921176014400e-01 -4.7418118595042476e-02 -2.4307892692182382e-02  -1.3023089918048658e-01 -3.9790273795763484e-02 -2.4158906078968929e-02  -1.3036012878832540e-01 -4.7445262316642679e-02 -2.4213881393073657e-02  -1.4494455887341451e-01 -3.9772806321943195e-02 -2.4142934639914751e-02  -1.4504130075160193e-01 -4.7492123472222252e-02 -2.4166734556072079e-02  -1.5969944911488973e-01 -3.9825319463573372e-02 -2.4230247843686801e-02  -1.5977387643265034e-01 -4.7551862301073798e-02 -2.4247722041491965e-02  -8.5735067454057248e-02 -3.2352434440634091e-02 -2.4279300098250974e-02  -7.1060226029350512e-02 -3.2194042726935906e-02 -2.4020557813816203e-02  -1.0044030935280811e-01 -3.2297873692345457e-02 -2.4310453588175622e-02  -1.1517093997999957e-01 -3.2171830322338675e-02 -2.4247923653705646e-02  -1.2992975904436771e-01 -3.2057523292521602e-02 -2.4173880729677206e-02  -1.4471769039221447e-01 -3.2003116759552780e-02 -2.4143356125918863e-02  -1.5952450599926288e-01 -3.2065223056559691e-02 -2.4224006547231711e-02  -8.4819356661986575e-02 -2.4528976825444332e-02 -2.4528976825444450e-02  -6.9848953036736369e-02 -2.4372857047596685e-02 -2.4372857047596751e-02  -9.9763877844480847e-02 -2.4474976740584811e-02 -2.4474976740584856e-02  -1.1467204352692321e-01 -2.4346846423224561e-02 -2.4346846423224669e-02  -1.2955398347807098e-01 -2.4225309120792880e-02 -2.4225309120793015e-02  -1.4442386907260993e-01 -2.4164484823114916e-02 -2.4164484823115021e-02  -1.5930022157977253e-01 -2.4233927888380961e-02 -2.4233927888381107e-02  -8.4038513570823828e-02 -1.6534524320307324e-02 -2.4795971595834274e-02  -6.8868116317448824e-02 -1.6399452719949709e-02 -2.4738772864880968e-02  -9.9163226967863297e-02 -1.6499482050631332e-02 -2.4655834659717175e-02  -1.1421384770331955e-01 -1.6400696331108078e-02 -2.4459179636000083e-02  -1.2919850300515076e-01 -1.6303073352048659e-02 -2.4287038677598169e-02  -1.4414045392623281e-01 -1.6255003271280825e-02 -2.4194097983647748e-02  -1.5908345807827509e-01 -1.6315024682266852e-02 -2.4252913671730780e-02  -8.3522339511298505e-02 -8.4435825729836309e-03 -2.4990399316669069e-02  -6.8241913689481945e-02 -8.3680842445871123e-03 -2.5000297192836096e-02  -9.8754795358067859e-02 -8.4248435750472663e-03 -2.4789794969146756e-02  -1.1389490649039745e-01 -8.3697859279605186e-03 -2.4543772673609170e-02  -1.2894611845574649e-01 -8.3142511779051385e-03 -2.4334567905077594e-02  -1.4393677946147018e-01 -8.2882598963679322e-03 -2.4218207107077196e-02  -1.5892712487735114e-01 -8.3226548209377350e-03 -2.4269487895213090e-02  -8.5854679358822975e-02 -4.0350469335244228e-02 -1.6318462716194894e-02  -8.6299585391391154e-02 -4.7671457315652664e-02 -1.6519933878762015e-02  -7.2116006112655451e-02 -4.7478260770682804e-02 -1.6358274787346787e-02  -7.1355476537705992e-02 -4.0316096634110059e-02 -1.6089399325158966e-02  -1.0046693490098881e-01 -4.0209841576577206e-02 -1.6360434417317361e-02  -1.0072505753078306e-01 -4.7670978546556206e-02 -1.6501055385068721e-02  -1.1515237319577960e-01 -4.0027727115024919e-02 -1.6320824602827438e-02  -1.1530805554363524e-01 -4.7601866560258700e-02 -1.6411699246608815e-02  -1.2988906825879884e-01 -3.9880431598667034e-02 -1.6266189444553030e-02  -1.2999339974777627e-01 -4.7539869773044530e-02 -1.6318438536326894e-02  -1.4466570733885872e-01 -3.9807360222481158e-02 -1.6246128689202409e-02  -1.4474435581810033e-01 -4.7519811848210372e-02 -1.6270781116745799e-02  -1.5947285459010499e-01 -3.9834921332413509e-02 -1.6316445595573562e-02  -1.5953005415186766e-01 -4.7544926851317428e-02 -1.6332609885833575e-02  -8.4985542304934603e-02 -3.2703549409654344e-02 -1.6377118062947643e-02  -7.0117736449285498e-02 -3.2680530309861171e-02 -1.6180092812083435e-02  -9.9863321728439133e-02 -3.2534055735138762e-02 -1.6395037318121097e-02  -1.1472982844063495e-01 -3.2317326142973259e-02 -1.6337950221617940e-02  -1.2958574487773925e-01 -3.2136029786541793e-02 -1.6271041012449031e-02  -1.4444010821336101e-01 -3.2038395044346323e-02 -1.6242554716475493e-02  -1.5930635027007287e-01 -3.2084752388698907e-02 -1.6309338638381212e-02  -8.4038513570823828e-02 -2.4795971595834205e-02 -1.6534524320307397e-02  -6.8868116317448810e-02 -2.4738772864880940e-02 -1.6399452719949754e-02  -9.9163226967863310e-02 -2.4655834659717091e-02 -1.6499482050631384e-02  -1.1421384770331955e-01 -2.4459179635999986e-02 -1.6400696331108116e-02  -1.2919850300515051e-01 -2.4287038677598079e-02 -1.6303073352048766e-02  -1.4414045392623293e-01 -2.4194097983647654e-02 -1.6255003271280960e-02  -1.5908345807827518e-01 -2.4252913671730634e-02 -1.6315024682266997e-02  -8.3225284621976980e-02 -1.6710827622115218e-02 -1.6710827622115242e-02  -6.7850155534870671e-02 -1.6638453768271975e-02 -1.6638453768272048e-02  -9.8537018252905770e-02 -1.6619690112419126e-02 -1.6619690112419198e-02  -1.1373657599978082e-01 -1.6475662501620098e-02 -1.6475662501620192e-02  -1.2882960667103896e-01 -1.6344296558110528e-02 -1.6344296558110642e-02  -1.4384885463962135e-01 -1.6274834067533460e-02 -1.6274834067533606e-02  -1.5886462852299857e-01 -1.6328343804987374e-02 -1.6328343804987544e-02  -8.2687176455111408e-02 -8.5287229701529257e-03 -1.6839811226387676e-02  -6.7199911763168543e-02 -8.4832005411610949e-03 -1.6810754898555488e-02  -9.8110683839452525e-02 -8.4826923556724446e-03 -1.6708899273408483e-02  -1.1340398254411996e-01 -8.4053415054694929e-03 -1.6532135908953815e-02  -1.2856741738003921e-01 -8.3329832479191544e-03 -1.6376072273206397e-02  -1.4363893858573909e-01 -8.2963215349223518e-03 -1.6291056153792397e-02  -1.5870618083795757e-01 -8.3273868112358901e-03 -1.6339946133252011e-02  -8.5365825620712821e-02 -4.0648420009829399e-02 -8.3475112803646310e-03  -8.5772616945832783e-02 -4.7982563259281324e-02 -8.4670944097516090e-03  -7.1481992623560239e-02 -4.7900070812256279e-02 -8.3858541027470052e-03  -7.0762463642082801e-02 -4.0720961964479732e-02 -8.2295222495130122e-03  -1.0007935925468825e-01 -4.0413571257554827e-02 -8.3640358606172013e-03  -1.0030556203775171e-01 -4.7884359169545379e-02 -8.4489823781969588e-03  -1.1484871329373660e-01 -4.0154512459425938e-02 -8.3365521800464071e-03  -1.1497945351029662e-01 -4.7734874390313209e-02 -8.3924774860479386e-03  -1.2964720021419093e-01 -3.9947879287986515e-02 -8.3016650798657457e-03  -1.2973334198901273e-01 -4.7609160443799793e-02 -8.3343244708511503e-03  -1.4446665601731007e-01 -3.9834468056724019e-02 -8.2890813952773909e-03  -1.4453282739114312e-01 -4.7541487075007507e-02 -8.3062025335101045e-03  -1.5931121508532242e-01 -3.9844476850222146e-02 -8.3287227135972301e-03  -1.5935743764563787e-01 -4.7542376054802278e-02 -8.3386174484462866e-03  -8.4489730237773633e-02 -3.2956492033806330e-02 -8.3711990613007867e-03  -6.9515257988572651e-02 -3.3023374928332495e-02 -8.2670773490107260e-03  -9.9470936606608884e-02 -3.2707357283915738e-02 -8.3772113571925159e-03  -1.1442286063944841e-01 -3.2425898147254266e-02 -8.3419579830873863e-03  -1.2934171176321366e-01 -3.2195759399939433e-02 -8.3012510736255717e-03  -1.4424104440930965e-01 -3.2066633702967286e-02 -8.2846587703750453e-03  -1.5914956550870102e-01 -3.2101977184932622e-02 -8.3224499047763103e-03  -8.3522339511298616e-02 -2.4990399316669021e-02 -8.4435825729836846e-03  -6.8241913689481973e-02 -2.5000297192836002e-02 -8.3680842445871349e-03  -9.8754795358067818e-02 -2.4789794969146683e-02 -8.4248435750473097e-03  -1.1389490649039732e-01 -2.4543772673609125e-02 -8.3697859279606313e-03  -1.2894611845574658e-01 -2.4334567905077473e-02 -8.3142511779052703e-03  -1.4393677946146996e-01 -2.4218207107077037e-02 -8.2882598963680831e-03  -1.5892712487735111e-01 -2.4269487895212986e-02 -8.3226548209378963e-03  -8.2687176455111491e-02 -1.6839811226387603e-02 -8.5287229701530021e-03  -6.7199911763168529e-02 -1.6810754898555456e-02 -8.4832005411611122e-03  -9.8110683839452581e-02 -1.6708899273408406e-02 -8.4826923556725279e-03  -1.1340398254412001e-01 -1.6532135908953718e-02 -8.4053415054696039e-03  -1.2856741738003932e-01 -1.6376072273206282e-02 -8.3329832479193261e-03  -1.4363893858573912e-01 -1.6291056153792279e-02 -8.2963215349225218e-03  -1.5870618083795773e-01 -1.6339946133251831e-02 -8.3273868112360514e-03  -8.2134097774782241e-02 -8.5904978418589288e-03 -8.5904978418590051e-03  -6.6533612513766965e-02 -8.5658377902892002e-03 -8.5658377902892349e-03  -9.7671936861682185e-02 -8.5250576892030184e-03 -8.5250576892031190e-03  -1.1306183313147802e-01 -8.4316470853213425e-03 -8.4316470853214656e-03  -1.2829831994650120e-01 -8.3470920126892979e-03 -8.3470920126894471e-03  -1.4342450141821378e-01 -8.3027346807786322e-03 -8.3027346807788057e-03  -1.5854598618108345e-01 -8.3313939804712193e-03 -8.3313939804714084e-03  -1.1293570423881552e-01 -2.8623532784631328e-04 -8.4401578866919701e-03  -1.2819822890518093e-01 -2.8122214541997513e-04 -8.3511833893960517e-03  -1.4334462557614081e-01 -2.8065616188219586e-04 -8.3039397253093939e-03  -1.5848625356945967e-01 -2.7794971808685858e-04 -8.3314060526731432e-03  -8.5187586755448158e-02 -4.0757719146082109e-02 -3.1537098843842539e-04  -7.0549596399883008e-02 -4.0868147465201898e-02 -3.2368947386715027e-04  -9.9935857441774967e-02 -4.0488843988835288e-02 -3.0813114236938663e-04  -1.0014970369807188e-01 -4.7963341486291895e-02 -3.1392999702459408e-04  -1.1473453970767704e-01 -4.0201504499979411e-02 -3.0236856397242054e-04  -1.1485531643459132e-01 -4.7784270783912168e-02 -3.0735454044941116e-04  -1.2955492625317369e-01 -3.9972608262685297e-02 -2.9784686014852467e-04  -1.2963335291964201e-01 -4.7634580348432723e-02 -3.0126628407559851e-04  -1.4439013069227874e-01 -3.9843940349460781e-02 -2.9738114169176741e-04  -1.4445122766839105e-01 -4.7549362363957987e-02 -3.0152028041685532e-04  -1.5924858742819992e-01 -3.9846883674169366e-02 -2.9790693484084755e-04  -1.5929053400266074e-01 -4.7540211098670973e-02 -2.9827067984522152e-04  -8.4308840965214266e-02 -3.3049112334354293e-02 -3.1778645438731605e-04  -6.9298876437836401e-02 -3.3148034618371319e-02 -3.2849911645868498e-04  -9.9325607252600714e-02 -3.2771103413438668e-02 -3.0862408968180947e-04  -1.1430750010697421e-01 -3.2465835822087931e-02 -3.0146691000630129e-04  -1.2924868106208881e-01 -3.221742601