<?xml version="1.0"?>
<VTKFile type="UnstructuredGrid"  version="0.1"  >
<UnstructuredGrid>
<Piece  NumberOfPoints="2197" NumberOfCells="10368">
<Points>
<DataArray  type="Float64"  NumberOfComponents="3"  format="ascii">0 0 0  0.08333333333333333 0 0  0.1666666666666667 0 0  0.25 0 0  0.3333333333333333 0 0  0.4166666666666667 0 0  0.5 0 0  0.5833333333333334 0 0  0.6666666666666666 0 0  0.75 0 0  0.8333333333333334 0 0  0.9166666666666666 0 0  1 0 0  0 0.08333333333333333 0  0.08333333333333333 0.08333333333333333 0  0.1666666666666667 0.08333333333333333 0  0.25 0.08333333333333333 0  0.3333333333333333 0.08333333333333333 0  0.4166666666666667 0.08333333333333333 0  0.5 0.08333333333333333 0  0.5833333333333334 0.08333333333333333 0  0.6666666666666666 0.08333333333333333 0  0.75 0.08333333333333333 0  0.8333333333333334 0.08333333333333333 0  0.9166666666666666 0.08333333333333333 0  1 0.08333333333333333 0  0 0.1666666666666667 0  0.08333333333333333 0.1666666666666667 0  0.1666666666666667 0.1666666666666667 0  0.25 0.1666666666666667 0  0.3333333333333333 0.1666666666666667 0  0.4166666666666667 0.1666666666666667 0  0.5 0.1666666666666667 0  0.5833333333333334 0.1666666666666667 0  0.6666666666666666 0.1666666666666667 0  0.75 0.1666666666666667 0  0.8333333333333334 0.1666666666666667 0  0.9166666666666666 0.1666666666666667 0  1 0.1666666666666667 0  0 0.25 0  0.08333333333333333 0.25 0  0.1666666666666667 0.25 0  0.25 0.25 0  0.3333333333333333 0.25 0  0.4166666666666667 0.25 0  0.5 0.25 0  0.5833333333333334 0.25 0  0.6666666666666666 0.25 0  0.75 0.25 0  0.8333333333333334 0.25 0  0.9166666666666666 0.25 0  1 0.25 0  0 0.3333333333333333 0  0.08333333333333333 0.3333333333333333 0  0.1666666666666667 0.3333333333333333 0  0.25 0.3333333333333333 0  0.3333333333333333 0.3333333333333333 0  0.4166666666666667 0.3333333333333333 0  0.5 0.3333333333333333 0  0.5833333333333334 0.3333333333333333 0  0.6666666666666666 0.3333333333333333 0  0.75 0.3333333333333333 0  0.8333333333333334 0.3333333333333333 0  0.9166666666666666 0.3333333333333333 0  1 0.3333333333333333 0  0 0.4166666666666667 0  0.08333333333333333 0.4166666666666667 0  0.1666666666666667 0.4166666666666667 0  0.25 0.4166666666666667 0  0.3333333333333333 0.4166666666666667 0  0.4166666666666667 0.4166666666666667 0  0.5 0.4166666666666667 0  0.5833333333333334 0.4166666666666667 0  0.6666666666666666 0.4166666666666667 0  0.75 0.4166666666666667 0  0.8333333333333334 0.4166666666666667 0  0.9166666666666666 0.4166666666666667 0  1 0.4166666666666667 0  0 0.5 0  0.08333333333333333 0.5 0  0.1666666666666667 0.5 0  0.25 0.5 0  0.3333333333333333 0.5 0  0.4166666666666667 0.5 0  0.5 0.5 0  0.5833333333333334 0.5 0  0.6666666666666666 0.5 0  0.75 0.5 0  0.8333333333333334 0.5 0  0.9166666666666666 0.5 0  1 0.5 0  0 0.5833333333333334 0  0.08333333333333333 0.5833333333333334 0  0.1666666666666667 0.5833333333333334 0  0.25 0.5833333333333334 0  0.3333333333333333 0.5833333333333334 0  0.4166666666666667 0.5833333333333334 0  0.5 0.5833333333333334 0  0.5833333333333334 0.5833333333333334 0  0.6666666666666666 0.5833333333333334 0  0.75 0.5833333333333334 0  0.8333333333333334 0.5833333333333334 0  0.9166666666666666 0.5833333333333334 0  1 0.5833333333333334 0  0 0.6666666666666666 0  0.08333333333333333 0.6666666666666666 0  0.1666666666666667 0.6666666666666666 0  0.25 0.6666666666666666 0  0.3333333333333333 0.6666666666666666 0  0.4166666666666667 0.6666666666666666 0  0.5 0.6666666666666666 0  0.5833333333333334 0.6666666666666666 0  0.6666666666666666 0.6666666666666666 0  0.75 0.6666666666666666 0  0.8333333333333334 0.6666666666666666 0  0.9166666666666666 0.6666666666666666 0  1 0.6666666666666666 0  0 0.75 0  0.08333333333333333 0.75 0  0.1666666666666667 0.75 0  0.25 0.75 0  0.3333333333333333 0.75 0  0.4166666666666667 0.75 0  0.5 0.75 0  0.5833333333333334 0.75 0  0.6666666666666666 0.75 0  0.75 0.75 0  0.8333333333333334 0.75 0  0.9166666666666666 0.75 0  1 0.75 0  0 0.8333333333333334 0  0.08333333333333333 0.8333333333333334 0  0.1666666666666667 0.8333333333333334 0  0.25 0.8333333333333334 0  0.3333333333333333 0.8333333333333334 0  0.4166666666666667 0.8333333333333334 0  0.5 0.8333333333333334 0  0.5833333333333334 0.8333333333333334 0  0.6666666666666666 0.8333333333333334 0  0.75 0.8333333333333334 0  0.8333333333333334 0.8333333333333334 0  0.9166666666666666 0.8333333333333334 0  1 0.8333333333333334 0  0 0.9166666666666666 0  0.08333333333333333 0.9166666666666666 0  0.1666666666666667 0.9166666666666666 0  0.25 0.9166666666666666 0  0.3333333333333333 0.9166666666666666 0  0.4166666666666667 0.9166666666666666 0  0.5 0.9166666666666666 0  0.5833333333333334 0.9166666666666666 0  0.6666666666666666 0.9166666666666666 0  0.75 0.9166666666666666 0  0.8333333333333334 0.9166666666666666 0  0.9166666666666666 0.9166666666666666 0  1 0.9166666666666666 0  0 1 0  0.08333333333333333 1 0  0.1666666666666667 1 0  0.25 1 0  0.3333333333333333 1 0  0.4166666666666667 1 0  0.5 1 0  0.5833333333333334 1 0  0.6666666666666666 1 0  0.75 1 0  0.8333333333333334 1 0  0.9166666666666666 1 0  1 1 0  0 0 0.08333333333333333  0.08333333333333333 0 0.08333333333333333  0.1666666666666667 0 0.08333333333333333  0.25 0 0.08333333333333333  0.3333333333333333 0 0.08333333333333333  0.4166666666666667 0 0.08333333333333333  0.5 0 0.08333333333333333  0.5833333333333334 0 0.08333333333333333  0.6666666666666666 0 0.08333333333333333  0.75 0 0.08333333333333333  0.8333333333333334 0 0.08333333333333333  0.9166666666666666 0 0.08333333333333333  1 0 0.08333333333333333  0 0.08333333333333333 0.08333333333333333  0.08333333333333333 0.08333333333333333 0.08333333333333333  0.1666666666666667 0.08333333333333333 0.08333333333333333  0.25 0.08333333333333333 0.08333333333333333  0.3333333333333333 0.08333333333333333 0.08333333333333333  0.4166666666666667 0.08333333333333333 0.08333333333333333  0.5 0.08333333333333333 0.08333333333333333  0.5833333333333334 0.08333333333333333 0.08333333333333333  0.6666666666666666 0.08333333333333333 0.08333333333333333  0.75 0.08333333333333333 0.08333333333333333  0.8333333333333334 0.08333333333333333 0.08333333333333333  0.9166666666666666 0.08333333333333333 0.08333333333333333  1 0.08333333333333333 0.08333333333333333  0 0.1666666666666667 0.08333333333333333  0.08333333333333333 0.1666666666666667 0.08333333333333333  0.1666666666666667 0.1666666666666667 0.08333333333333333  0.25 0.1666666666666667 0.08333333333333333  0.3333333333333333 0.1666666666666667 0.08333333333333333  0.4166666666666667 0.1666666666666667 0.08333333333333333  0.5 0.1666666666666667 0.08333333333333333  0.5833333333333334 0.1666666666666667 0.08333333333333333  0.6666666666666666 0.1666666666666667 0.08333333333333333  0.75 0.1666666666666667 0.08333333333333333  0.8333333333333334 0.1666666666666667 0.08333333333333333  0.9166666666666666 0.1666666666666667 0.08333333333333333  1 0.1666666666666667 0.08333333333333333  0 0.25 0.08333333333333333  0.08333333333333333 0.25 0.08333333333333333  0.1666666666666667 0.25 0.08333333333333333  0.25 0.25 0.08333333333333333  0.3333333333333333 0.25 0.08333333333333333  0.4166666666666667 0.25 0.08333333333333333  0.5 0.25 0.08333333333333333  0.5833333333333334 0.25 0.08333333333333333  0.6666666666666666 0.25 0.08333333333333333  0.75 0.25 0.08333333333333333  0.8333333333333334 0.25 0.08333333333333333  0.9166666666666666 0.25 0.08333333333333333  1 0.25 0.08333333333333333  0 0.3333333333333333 0.08333333333333333  0.08333333333333333 0.3333333333333333 0.08333333333333333  0.1666666666666667 0.3333333333333333 0.08333333333333333  0.25 0.3333333333333333 0.08333333333333333  0.3333333333333333 0.3333333333333333 0.08333333333333333  0.4166666666666667 0.3333333333333333 0.08333333333333333  0.5 0.3333333333333333 0.08333333333333333  0.5833333333333334 0.3333333333333333 0.08333333333333333  0.6666666666666666 0.3333333333333333 0.08333333333333333  0.75 0.3333333333333333 0.08333333333333333  0.8333333333333334 0.3333333333333333 0.08333333333333333  0.9166666666666666 0.3333333333333333 0.08333333333333333  1 0.3333333333333333 0.08333333333333333  0 0.4166666666666667 0.08333333333333333  0.08333333333333333 0.4166666666666667 0.08333333333333333  0.1666666666666667 0.4166666666666667 0.08333333333333333  0.25 0.4166666666666667 0.08333333333333333  0.3333333333333333 0.4166666666666667 0.08333333333333333  0.4166666666666667 0.4166666666666667 0.08333333333333333  0.5 0.4166666666666667 0.08333333333333333  0.5833333333333334 0.4166666666666667 0.08333333333333333  0.6666666666666666 0.4166666666666667 0.08333333333333333  0.75 0.4166666666666667 0.08333333333333333  0.8333333333333334 0.4166666666666667 0.08333333333333333  0.9166666666666666 0.4166666666666667 0.08333333333333333  1 0.4166666666666667 0.08333333333333333  0 0.5 0.08333333333333333  0.08333333333333333 0.5 0.08333333333333333  0.1666666666666667 0.5 0.08333333333333333  0.25 0.5 0.08333333333333333  0.3333333333333333 0.5 0.08333333333333333  0.4166666666666667 0.5 0.08333333333333333  0.5 0.5 0.08333333333333333  0.5833333333333334 0.5 0.08333333333333333  0.6666666666666666 0.5 0.08333333333333333  0.75 0.5 0.08333333333333333  0.8333333333333334 0.5 0.08333333333333333  0.9166666666666666 0.5 0.08333333333333333  1 0.5 0.08333333333333333  0 0.5833333333333334 0.08333333333333333  0.08333333333333333 0.5833333333333334 0.08333333333333333  0.1666666666666667 0.5833333333333334 0.08333333333333333  0.25 0.5833333333333334 0.08333333333333333  0.3333333333333333 0.5833333333333334 0.08333333333333333  0.4166666666666667 0.5833333333333334 0.08333333333333333  0.5 0.5833333333333334 0.08333333333333333  0.5833333333333334 0.5833333333333334 0.08333333333333333  0.6666666666666666 0.5833333333333334 0.08333333333333333  0.75 0.5833333333333334 0.08333333333333333  0.8333333333333334 0.5833333333333334 0.083
[...]
<PointData  Vectors="f_9"> 
<DataArray  type="Float64"  Name="f_9"  NumberOfComponents="3" format="ascii">0.0000000000000000e+00 0.0000000000000000e+00 0.0000000000000000e+00  1.9530332566873032e-02 1.9500906352783086e-02 1.9500906352787978e-02  2.9124012878100465e-02 2.6648447819714306e-02 2.6648447819725481e-02  3.7848432872912063e-02 3.0886863995391090e-02 3.0886863995401442e-02  4.6941522604339356e-02 3.3506355787040122e-02 3.3506355787042155e-02  5.6648971615935524e-02 3.5142244494165961e-02 3.5142244494171963e-02  6.6996927900786901e-02 3.6152791941177466e-02 3.6152791941188742e-02  7.7932822541704569e-02 3.6770736246233650e-02 3.6770736246251386e-02  8.9373968745530455e-02 3.7156241921185884e-02 3.7156241921202642e-02  1.0123009129091443e-01 3.7423463104778988e-02 3.7423463104794094e-02  1.1340923264741259e-01 3.7657112032926029e-02 3.7657112032941566e-02  1.2581140091394891e-01 3.7918679318908147e-02 3.7918679318923530e-02  1.3832820822617378e-01 3.8237968973098467e-02 3.8237968973114378e-02  0.0000000000000000e+00 0.0000000000000000e+00 0.0000000000000000e+00  1.3395930931027967e-02 1.3272498887223504e-02 2.0096761390648036e-02  2.4171473926792777e-02 2.1379729044011409e-02 2.7453788319001641e-02  3.4385016512039172e-02 2.5935369108507182e-02 3.1365598670148695e-02  4.4574026844083590e-02 2.8525046185956793e-02 3.3801665717917324e-02  5.5047082615614244e-02 2.9987383181252728e-02 3.5329489756672286e-02  6.5919185498902383e-02 3.0782253760216472e-02 3.6270056393990877e-02  7.7201560912821682e-02 3.1189605443411417e-02 3.6840246175827970e-02  8.8857215664451261e-02 3.1389464963245531e-02 3.7192111685611887e-02  1.0082990339292122e-01 3.1502878713483173e-02 3.7434907222652102e-02  1.1305605631456007e-01 3.1616579355083559e-02 3.7650977518114012e-02  1.2546460700755532e-01 3.1797712109102316e-02 3.7903314087252109e-02  1.3797146078906394e-01 3.2109586623082866e-02 3.8218993059085056e-02  0.0000000000000000e+00 0.0000000000000000e+00 0.0000000000000000e+00  1.2210197162483829e-02 9.1451859207030330e-03 2.1065954236267267e-02  2.1721564921037481e-02 1.6198869265123390e-02 2.8590298418667302e-02  3.1797896357947525e-02 2.0602460866721652e-02 3.2399582897186384e-02  4.2362673680442900e-02 2.3123885550267918e-02 3.4582042206016371e-02  5.3304648254032305e-02 2.4477945183973789e-02 3.5880252578262682e-02  6.4593477488712608e-02 2.5141520749638279e-02 3.6641224066481362e-02  7.6203333755082023e-02 2.5417105968190523e-02 3.7075689675446950e-02  8.8095857542690226e-02 2.5496847098223259e-02 3.7325986177528817e-02  1.0022614877500062e-01 2.5505676158306748e-02 3.7492611710932544e-02  1.1254726715127959e-01 2.5530671178500681e-02 3.7650793876818030e-02  1.2500680343597828e-01 2.5645208828985255e-02 3.7856488293763195e-02  1.3753917698570550e-01 2.5949759740106899e-02 3.8124914948918939e-02  0.0000000000000000e+00 0.0000000000000000e+00 0.0000000000000000e+00  1.1831991206763530e-02 6.3298552506382165e-03 2.1607047645687955e-02  2.0549906160554819e-02 1.1577177277271141e-02 2.9585909828949507e-02  3.0133403782932885e-02 1.5219993453882301e-02 3.3459332950212931e-02  4.0631943203943373e-02 1.7433324288764672e-02 3.5492570542215315e-02  5.1748979652607267e-02 1.8634712559409589e-02 3.6580677468361522e-02  6.3295038155788699e-02 1.9201550765867062e-02 3.7141355388344448e-02  7.5157254856883599e-02 1.9406301812979997e-02 3.7407952262101037e-02  8.7259202496723615e-02 1.9429893998742027e-02 3.7524659680592744e-02  9.9544453192400101e-02 1.9390188534079977e-02 3.7586206700273107e-02  1.1196823117763301e-01 1.9369102040212260e-02 3.7659419748439775e-02  1.2448770699444064e-01 1.9440261496129128e-02 3.7789986936397291e-02  1.3705572057936699e-01 1.9718750498795890e-02 3.7979803347305698e-02  0.0000000000000000e+00 0.0000000000000000e+00 0.0000000000000000e+00  1.1698837840447236e-02 4.0529874515861852e-03 2.1966725221409845e-02  1.9981634177989441e-02 7.5042009356387218e-03 3.0271459659205226e-02  2.9153763122832896e-02 1.0050217750535908e-02 3.4266830847831657e-02  3.9458342016078882e-02 1.1681521031010549e-02 3.6248865242557257e-02  5.0581007845885831e-02 1.2597217038152116e-02 3.7202493308585396e-02  6.2246160218892906e-02 1.3034294148115497e-02 3.7608044180283878e-02  7.4266284808514590e-02 1.3188274254961945e-02 3.7730218659926672e-02  8.6518894843751054e-02 1.3197927712419432e-02 3.7724114228826711e-02  9.8925009968343885e-02 1.3156181588476205e-02 3.7684258688806281e-02  1.1143289275620361e-01 1.3128526136282261e-02 3.7671816382494124e-02  1.2400365220209483e-01 1.3175609062610796e-02 3.7724048162595530e-02  1.3660793243831618e-01 1.3395697577186387e-02 3.7833073856422476e-02  0.0000000000000000e+00 0.0000000000000000e+00 0.0000000000000000e+00  1.1647766727997944e-02 2.0328229140809508e-03 2.2176994096239109e-02  1.9709410319301620e-02 3.7747151651989202e-03 3.0670441380599787e-02  2.8636557764362445e-02 5.0965576967234956e-03 3.4760343397569726e-02  3.8784966843014690e-02 5.9739410990413072e-03 3.6734456080730254e-02  4.9865059777543720e-02 6.4832452557822230e-03 3.7618054331430971e-02  6.1569567079859083e-02 6.7354173410960703e-03 3.7930036112789459e-02  7.3668641829427867e-02 6.8312805645737110e-03 3.7958361416538695e-02  8.6007189275687693e-02 6.8461682200151247e-03 3.7868455140763611e-02  9.8486924900123882e-02 6.8318114694482296e-03 3.7756855469007228e-02  1.1104791822473926e-01 6.8250116757058044e-03 3.7682022393696689e-02  1.2365240199896833e-01 6.8595219568995973e-03 3.7676205841231512e-02  1.3628425188541263e-01 6.9901826935620205e-03 3.7726175594354996e-02  0.0000000000000000e+00 0.0000000000000000e+00 0.0000000000000000e+00  1.1622840893552276e-02 1.2630460455381048e-04 2.2249985795936938e-02  1.9613454348922549e-02 2.1036155903105124e-04 3.0806973279600480e-02  2.8461394193506125e-02 2.7001521715666583e-04 3.4933026893873863e-02  3.8552131341508117e-02 3.1559821801889373e-04 3.6908967062754615e-02  4.9608675943023067e-02 3.5135975032856136e-04 3.7770434842134909e-02  6.1318318883102831e-02 3.8067174124399426e-04 3.8049868237952617e-02  7.3438931511052047e-02 4.0689026404788179e-04 3.8044258797734938e-02  8.5804135854074856e-02 4.3246741952581108e-04 3.7923350122964633e-02  9.8308060423077617e-02 4.5880703644948746e-04 3.7784785421421302e-02  1.1088699085654433e-01 4.8634160269451251e-04 3.7686172487846302e-02  1.2350327192040134e-01 5.1353007740834059e-04 3.7657931132211026e-02  1.3614693522614391e-01 5.3697967630664755e-04 3.7685335920490393e-02  0.0000000000000000e+00 0.0000000000000000e+00 0.0000000000000000e+00  1.1606912012508876e-02 -1.7665609663762383e-03 2.2190823534096630e-02  1.9662014247292785e-02 -3.3384490373958658e-03 3.0690877528174461e-02  2.8593002324419910e-02 -4.5431814788997691e-03 3.4788461136528240e-02  3.8737405565951358e-02 -5.3343349372009779e-03 3.6764412133671903e-02  4.9808828997559271e-02 -5.7772119059948451e-03 3.7644030981818198e-02  6.1505457472772827e-02 -5.9742342628366163e-03 3.7949853098034829e-02  7.3599651831809235e-02 -6.0193537179831468e-03 3.7972079176259943e-02  8.5936135522847443e-02 -5.9835911227824057e-03 3.7876968427980919e-02  9.8415544075778100e-02 -5.9165088011444390e-03 3.7761182172938945e-02  1.1097673931555219e-01 -5.8543345566553382e-03 3.7682796836859093e-02  1.2358168913722399e-01 -5.8334601447347454e-03 3.7673310787486654e-02  1.3621851873260979e-01 -5.9153850536605443e-03 3.7719846781288306e-02  0.0000000000000000e+00 0.0000000000000000e+00 0.0000000000000000e+00  1.1608391938078335e-02 -3.7421992042746435e-03 2.1999599569685696e-02  1.9891735581964370e-02 -7.0174300498002436e-03 3.0319937329603776e-02  2.9070994736760482e-02 -9.4560347562306999e-03 3.4330300652984320e-02  3.9361323785431411e-02 -1.1019044460199320e-02 3.6311691868067222e-02  5.0464139555907846e-02 -1.1884273579096096e-02 3.7254041267838330e-02  6.2114461568909964e-02 -1.2275765012857749e-02 3.7645743707895522e-02  7.4126811208036811e-02 -1.2382925083236233e-02 3.7755337200980496e-02  8.6376923152098870e-02 -1.2342554963199550e-02 3.7739055893132090e-02  9.8783377406967382e-02 -1.2247445826147941e-02 3.7691358113814889e-02  1.1129235857105080e-01 -1.2163442512924583e-02 3.7672584450644385e-02  1.2386435100105500e-01 -1.2152454923547823e-02 3.7718551912356235e-02  1.3647742625156539e-01 -1.2318053384847504e-02 3.7821568822503981e-02  0.0000000000000000e+00 0.0000000000000000e+00 0.0000000000000000e+00  1.1686468650536377e-02 -5.9315712582631575e-03 2.1672467939759806e-02  2.0440809302563378e-02 -1.0990309711943346e-02 2.9684593468548497e-02  3.0016513891669316e-02 -1.4558823714180956e-02 3.3572025788188749e-02  4.0476235181139304e-02 -1.6743811842038499e-02 3.5590926567026539e-02  5.1561176374774934e-02 -1.7921124992442444e-02 3.6654084019863156e-02  6.3090035235560823e-02 -1.8453923742289022e-02 3.7190889655658615e-02  7.4946059947970628e-02 -1.8614210856230808e-02 3.7438498073880284e-02  8.7047726605423870e-02 -1.8586177913196118e-02 3.7541282484181135e-02  9.9335104415762293e-02 -1.8490734289397348e-02 3.7592861330807290e-02  1.1176142179609570e-01 -1.8411509030177211e-02 3.7658526243035069e-02  1.2428324388905644e-01 -1.8421395093750612e-02 3.7782128931339337e-02  1.3686141476134819e-01 -1.8635620837259052e-02 3.7964989194585741e-02  0.0000000000000000e+00 0.0000000000000000e+00 0.0000000000000000e+00  1.2078021555108653e-02 -8.5788225386847477e-03 2.1207206675965099e-02  2.1639566406148111e-02 -1.5440624215384025e-02 2.8788014633353905e-02  3.1629022455607718e-02 -1.9868109575299137e-02 3.2576941149905961e-02  4.2122069198864083e-02 -2.2430098736826685e-02 3.4708879921032582e-02  5.3032102791285209e-02 -2.3785396212154582e-02 3.5959988291076155e-02  6.4312163161836272e-02 -2.4417422699505236e-02 3.6687282793739270e-02  7.5922712225528016e-02 -2.4643593553273824e-02 3.7100025703987592e-02  8.7818832940602262e-02 -2.4665988793883251e-02 3.7336727727871749e-02  9.9952937292334038e-02 -2.4614647981875435e-02 3.7494540832227294e-02  1.1227734966785845e-01 -2.4578898788534680e-02 3.7646167457255846e-02  1.2474004270795078e-01 -2.4630079767447251e-02 3.7846065589225729e-02  1.3728060932996039e-01 -2.4859094772583853e-02 3.8108800600051680e-02  0.0000000000000000e+00 0.0000000000000000e+00 0.0000000000000000e+00  1.3618019159167194e-02 -1.2241948799391373e-02 2.0650819435895949e-02  2.4076249357868919e-02 -2.0486521341440599e-02 2.7739130084851196e-02  3.4068830777791444e-02 -2.5230916083978951e-02 3.1560869080250430e-02  4.4205997540729236e-02 -2.7887976729370659e-02 3.3900628749106737e-02  5.4681558726888541e-02 -2.9335370827991685e-02 3.5373334518557814e-02  6.5564919880859024e-02 -3.0080541335403988e-02 3.6287253431983649e-02  7.6856983306940574e-02 -3.0426855657331005e-02 3.6844832461682839e-02  8.8519627051924232e-02 -3.0563361397539519e-02 3.7190449267527702e-02  1.0049694751539294e-01 -3.0613649958210382e-02 3.7429547205077567e-02  1.1272596440807420e-01 -3.0664346106650163e-02 3.7642206460923922e-02  1.2513695271946709e-01 -3.0780753558887479e-02 3.7890681581135198e-02  1.3764702365371276e-01 -3.1014271504050294e-02 3.8204025290003905e-02  0.0000000000000000e+00 0.0000000000000000e+00 0.0000000000000000e+00  1.8172286093629843e-02 -1.8485733202744204e-02 1.9791045610090933e-02  2.8106318184074611e-02 -2.6033409164821646e-02 2.7130616097947542e-02  3.7069593816635008e-02 -3.0295013022937016e-02 3.1089669801329139e-02  4.6340613080023088e-02 -3.2885666927090114e-02 3.3559287702860194e-02  5.6148556899191626e-02 -3.4471178312678916e-02 3.5140853133223376e-02  6.6547502794326280e-02 -3.5424072681188148e-02 3.6137173109769077e-02  7.7509336278323168e-02 -3.5983100657225736e-02 3.6753818252619058e-02  8.8964274489346906e-02 -3.6310207886172251e-02 3.7141140403594050e-02  1.0082844127675671e-01 -3.6519639294478955e-02 3.7409903542325519e-02  1.1301451911349893e-01 -3.6695074828920871e-02 3.7643336647171066e-02  1.2542538391739044e-01 -3.6896064968414140e-02 3.7903747177802080e-02  1.3793812037057943e-01 -3.7149995607753922e-02 3.8224778628909446e-02  0.0000000000000000e+00 0.0000000000000000e+00 0.0000000000000000e+00  1.3395930931026267e-02 2.0096761390644754e-02 1.3272498887228753e-02  2.4171473926791098e-02 2.7453788318996499e-02 2.1379729044021925e-02  3.4385016512039762e-02 3.1365598670141125e-02 2.5935369108519277e-02  4.4574026844085228e-02 3.3801665717913772e-02 2.8525046185962705e-02  5.5047082615615833e-02 3.5329489756671731e-02 2.9987383181259767e-02  6.5919185498898067e-02 3.6270056393979948e-02 3.0782253760228463e-02  7.7201560912822181e-02 3.6840246175815043e-02 3.1189605443428060e-02  8.8857215664452760e-02 3.7192111685598772e-02 3.1389464963262954e-02  1.0082990339292064e-01 3.7434907222646557e-02 3.1502878713499154e-02  1.1305605631455802e-01 3.7650977518108295e-02 3.1616579355099421e-02  1.2546460700755327e-01 3.7903314087246301e-02 3.1797712109117325e-02  1.3797146078906172e-01 3.8218993059076722e-02 3.2109586623096292e-02  0.0000000000000000e+00 0.0000000000000000e+00 0.0000000000000000e+00  7.1742092359985497e-03 1.3408362160870163e-02 1.3408362160872571e-02  1.9318346487501522e-02 2.1366179876675637e-02 2.1366179876682219e-02  3.1162651756628943e-02 2.5876082620797457e-02 2.5876082620806328e-02  4.2420981015014493e-02 2.8470113607431433e-02 2.8470113607439354e-02  5.3604073690564934e-02 2.9941841614971657e-02 2.9941841614974450e-02  6.4954459785755661e-02 3.0746338296840082e-02 3.0746338296850913e-02  7.6550780648323768e-02 3.1163112376525196e-02 3.1163112376537891e-02  8.8398992815000174e-02 3.1371936399183793e-02 3.1371936399193161e-02  1.0047407546805892e-01 3.1493705017528316e-02 3.1493705017537191e-02  1.1273817142584691e-01 3.1615388720610850e-02 3.1615388720616408e-02  1.2514512503235997e-01 3.1804024694095510e-02 3.1804024694101443e-02  1.3762902769808641e-01 3.2108063471160755e-02 3.2108063471169117e-02  0.0000000000000000e+00 0.0000000000000000e+00 0.0000000000000000e+00  5.8032543477866422e-03 8.8315063934357538e-03 1.4111991099447958e-02  1.6715314905220442e-02 1.5917242667035227e-02 2.2302273523650471e-02  2.8542702078191456e-02 2.0281206800830186e-02 2.6698714310739759e-02  4.0257807738607397e-02 2.2834875124382471e-02 2.9106105322288241e-02  5.1937397192537905e-02 2.4246112094225447e-02 3.0394938901197589e-02  6.3706163895647649e-02 2.4969652464485639e-02 3.1050321449187311e-02  7.5621768473907544e-02 2.5299077522507266e-02 3.1353998822364955e-02  8.7696479302413310e-02 2.5424292521169949e-02 3.1479716699934934e-02  9.9920334541563072e-02 2.5470953313480812e-02 3.1541171775078543e-02  1.1227416258718793e-01 2.5527923684062370e-02 3.1618742766152681e-02  1.2473222583630388e-01 2.5668458816362937e-02 3.1771956224289404e-02  1.3724859088917757e-01 2.5969010486637155e-02 3.2036410685587657e-02  0.0000000000000000e+00 0.0000000000000000e+00 0.0000000000000000e+00  5.2359960864193323e-03 6.0125931451635029e-03 1.4625644517062074e-02  1.5416623504179093e-02 1.1226610658738177e-02 2.3208082609744995e-02  2.6863693927963440e-02 1.4829418721416245e-02 2.7667774238195997e-02  3.8582450244392552e-02 1.7067607792359614e-02 2.9941538345006083e-02  5.0464408082611989e-02 1.8330137629878163e-02 3.1042234554659043e-02  6.2493902468183420e-02 1.8969144811601175e-02 3.1514073297570666e-02  7.4654631648372730e-02 1.9243115838733480e-02 3.1662370991293189e-02  8.6928445760729903e-02 1.9327497649158611e-02 3.1664854062385429e-02  9.9298319401570370e-02 1.9339566521491786e-02 3.1630899046405647e-02  1.1175017836904012e-01 1.9362724557845337e-02 3.1633795937436156e-02  1.2427080335457423e-01 1.9470210408247268e-02 3.1725252897892478e-02  1.3683505171063651e-01 1.9750793207276681e-02 3.1934159676747585e-02  0.0000000000000000e+00 0.0000000000000000e+00 0.0000000000000000e+00  4.9702543047145369e-03 3.8090242123045084e-03 1.4986615510981956e-02  1.4730162917191099e-02 7.2226199446840779e-03 2.3873746390776225e-02  2.5849763477204593e-02 9.7299858238208345e-03 2.8437754832168257e-02  3.7442310256884326e-02 1.1371814680746538e-02 3.0660842328302681e-02  4.9362763153003135e-02 1.2330686876126269e-02 3.1634414212096271e-02  6.1520114848657312e-02 1.2825382811184049e-02 3.1959484980946647e-02  7.3835375915306048e-02 1.3038336410015313e-02 3.1970674129683130e-02  8.6252243914413745e-02 1.3101906199578361e-02 3.1856894927157653e-02  9.8735917495472447e-02 1.3107290371821460e-02 3.1728295094507399e-02  1.1126840922613566e-01 1.3120504190384888e-02 3.1654070767089960e-02  1.2384312363443913e-01 1.3201700592900448e-02 3.1680743775121832e-02  1.3645410513920125e-01 1.3427341291496043e-02 3.1834794684470723e-02  0.0000000000000000e+00 0.0000000000000000e+00 0.0000000000000000e+00  4.8419393350723882e-03 1.8772621186508170e-03 1.5198223087593292e-02  1.4380390065200097e-02 3.6111992839205605e-03 2.4270235558733803e-02  2.5301529664756517e-02 4.9110267466927456e-03 2.8917821160151902e-02  3.6782324759300204e-02 5.7940127363296460e-03 3.1129089312096559e-02  4.8686387950303930e-02 6.3262816785581129e-03 3.2034155103478575e-02  6.0892773133331246e-02 6.6103371447144080e-03 3.2269232599652295e-02  7.3286997913866378e-02 6.7400193787062346e-03 3.2190540942060475e-02  8.5785849295328537e-02 6.7866616338061025e-03 3.1996980048191848e-02  9.8338956779724915e-02 6.8005446426351200e-03 3.1801123168060066e-02  1.1092250319004694e-01 6.8184400944432703e-03 3.1670603205522521e-02  1.2353286592842692e-01 6.8740654830154960e-03 3.1649412087582929e-02  1.3617794579380396e-01 7.0104966445108099e-03 3.1763895264242815e-02  0.0000000000000000e+00 0.0000000000000000e+00 0.0000000000000000e+00  4.7924609989826190e-03 5.8751221120217894e-05 1.5269990082787881e-02  1.4256666866777500e-02 1.7861154238226279e-04 2.4404311496614393e-02  2.5112267650246222e-02 2.4273474966225977e-04 2.9084065535202711e-02  3.6550922408621636e-02 2.9533749834077664e-04 3.1295223400599502e-02  4.8442184964979630e-02 3.3580260094688558e-04 3.2178538009717726e-02  6.0658670408005579e-02 3.6859072480814782e-04 3.2382629369849918e-02  7.3075414614974660e-02 3.9774575383097396e-04 3.2271949336428511e-02  8.5599998481183590e-02 4.2587354848557668e-04 3.2049405385689497e-02  9.8176002175721186e-02 4.5432628737670350e-04 3.1828710354300259e-02  1.1077682401151429e-01 4.8350191628130295e-04 3.1677062504123138e-02  1.2339960294484485e-01 5.1267215175262711e-04 3.1637634167558971e-02  1.3605832355144970e-01 5.3980888263420912e-04 3.1737165641154960e-02  0.0000000000000000e+00 0.0000000000000000e+00 0.0000000000000000e+00  4.8027410116509937e-03 -1.7536542897659217e-03 1.5206078764008979e-02  1.4327978003377498e-02 -3.2422320934216726e-03 2.4282153560459065e-02  2.5250271625199779e-02 -4.4140523270057843e-03 2.8934853962137356e-02  3.6729154975648944e-02 -5.1962245838555483e-03 3.1147324726343833e-02  4.8628398424517598e-02 -5.6520042746738604e-03 3.2049680845149905e-02  6.0829848900103671e-02 -5.8732243896102310e-03 3.2280884109407978e-02  7.3220721211310028e-02 -5.9457814585359052e-03 3.2198596156680956e-02  8.5718047649590873e-02 -5.9364463891260931e-03 3.2002083546366966e-02  9.8270892010741837e-02 -5.8933443115660698e-03 3.1803816372778924e-02  1.1085458134263938e-01 -5.8526843353396496e-03 3.1671091203048125e-02  1.2346518660328654e-01 -5.8494307913489717e-03 3.1647503131606629e-02  1.3611397381940846e-01 -5.9307269416891432e-03 3.1759983612129519e-02  0.0000000000000000e+00 0.0000000000000000e+00 0.0000000000000000e+00  4.8790371598198615e-03 -3.6667441847400284e-03 1.5003880456922393e-02  1.4625528426818784e-02 -6.8141309947130566e-03 2.3904246034443421e-02  2.5749852609382052e-02 -9.1974216533228237e-03 2.8477581899075646e-02  3.7335493403213293e-02 -1.0754259469576534e-02 3.0699116472261180e-02  4.9244635948663323e-02 -1.1650039227698668e-02 3.1664848138935608e-02  6.1392386427837731e-02 -1.2089304736974935e-02 3.1981366832693786e-02  7.3702077353943546e-02 -1.2247941365332013e-02 3.1985294850025235e-02  8.6116932713623404e-02 -1.2255923566247771e-02 3.1865801722669618e-02  9.8600738486002593e-02 -1.2203907237522639e-02 3.1732675739237