<?xml version="1.0"?>
<VTKFile type="UnstructuredGrid"  version="0.1"  >
<UnstructuredGrid>
<Piece  NumberOfPoints="2197" NumberOfCells="10368">
<Points>
<DataArray  type="Float64"  NumberOfComponents="3"  format="ascii">0 0 0  0.08333333333333333 0 0  0.1666666666666667 0 0  0.25 0 0  0.3333333333333333 0 0  0.4166666666666667 0 0  0.5 0 0  0.5833333333333334 0 0  0.6666666666666666 0 0  0.75 0 0  0.8333333333333334 0 0  0.9166666666666666 0 0  1 0 0  0 0.08333333333333333 0  0.08333333333333333 0.08333333333333333 0  0.1666666666666667 0.08333333333333333 0  0.25 0.08333333333333333 0  0.3333333333333333 0.08333333333333333 0  0.4166666666666667 0.08333333333333333 0  0.5 0.08333333333333333 0  0.5833333333333334 0.08333333333333333 0  0.6666666666666666 0.08333333333333333 0  0.75 0.08333333333333333 0  0.8333333333333334 0.08333333333333333 0  0.9166666666666666 0.08333333333333333 0  1 0.08333333333333333 0  0 0.1666666666666667 0  0.08333333333333333 0.1666666666666667 0  0.1666666666666667 0.1666666666666667 0  0.25 0.1666666666666667 0  0.3333333333333333 0.1666666666666667 0  0.4166666666666667 0.1666666666666667 0  0.5 0.1666666666666667 0  0.5833333333333334 0.1666666666666667 0  0.6666666666666666 0.1666666666666667 0  0.75 0.1666666666666667 0  0.8333333333333334 0.1666666666666667 0  0.9166666666666666 0.1666666666666667 0  1 0.1666666666666667 0  0 0.25 0  0.08333333333333333 0.25 0  0.1666666666666667 0.25 0  0.25 0.25 0  0.3333333333333333 0.25 0  0.4166666666666667 0.25 0  0.5 0.25 0  0.5833333333333334 0.25 0  0.6666666666666666 0.25 0  0.75 0.25 0  0.8333333333333334 0.25 0  0.9166666666666666 0.25 0  1 0.25 0  0 0.3333333333333333 0  0.08333333333333333 0.3333333333333333 0  0.1666666666666667 0.3333333333333333 0  0.25 0.3333333333333333 0  0.3333333333333333 0.3333333333333333 0  0.4166666666666667 0.3333333333333333 0  0.5 0.3333333333333333 0  0.5833333333333334 0.3333333333333333 0  0.6666666666666666 0.3333333333333333 0  0.75 0.3333333333333333 0  0.8333333333333334 0.3333333333333333 0  0.9166666666666666 0.3333333333333333 0  1 0.3333333333333333 0  0 0.4166666666666667 0  0.08333333333333333 0.4166666666666667 0  0.1666666666666667 0.4166666666666667 0  0.25 0.4166666666666667 0  0.3333333333333333 0.4166666666666667 0  0.4166666666666667 0.4166666666666667 0  0.5 0.4166666666666667 0  0.5833333333333334 0.4166666666666667 0  0.6666666666666666 0.4166666666666667 0  0.75 0.4166666666666667 0  0.8333333333333334 0.4166666666666667 0  0.9166666666666666 0.4166666666666667 0  1 0.4166666666666667 0  0 0.5 0  0.08333333333333333 0.5 0  0.1666666666666667 0.5 0  0.25 0.5 0  0.3333333333333333 0.5 0  0.4166666666666667 0.5 0  0.5 0.5 0  0.5833333333333334 0.5 0  0.6666666666666666 0.5 0  0.75 0.5 0  0.8333333333333334 0.5 0  0.9166666666666666 0.5 0  1 0.5 0  0 0.5833333333333334 0  0.08333333333333333 0.5833333333333334 0  0.1666666666666667 0.5833333333333334 0  0.25 0.5833333333333334 0  0.3333333333333333 0.5833333333333334 0  0.4166666666666667 0.5833333333333334 0  0.5 0.5833333333333334 0  0.5833333333333334 0.5833333333333334 0  0.6666666666666666 0.5833333333333334 0  0.75 0.5833333333333334 0  0.8333333333333334 0.5833333333333334 0  0.9166666666666666 0.5833333333333334 0  1 0.5833333333333334 0  0 0.6666666666666666 0  0.08333333333333333 0.6666666666666666 0  0.1666666666666667 0.6666666666666666 0  0.25 0.6666666666666666 0  0.3333333333333333 0.6666666666666666 0  0.4166666666666667 0.6666666666666666 0  0.5 0.6666666666666666 0  0.5833333333333334 0.6666666666666666 0  0.6666666666666666 0.6666666666666666 0  0.75 0.6666666666666666 0  0.8333333333333334 0.6666666666666666 0  0.9166666666666666 0.6666666666666666 0  1 0.6666666666666666 0  0 0.75 0  0.08333333333333333 0.75 0  0.1666666666666667 0.75 0  0.25 0.75 0  0.3333333333333333 0.75 0  0.4166666666666667 0.75 0  0.5 0.75 0  0.5833333333333334 0.75 0  0.6666666666666666 0.75 0  0.75 0.75 0  0.8333333333333334 0.75 0  0.9166666666666666 0.75 0  1 0.75 0  0 0.8333333333333334 0  0.08333333333333333 0.8333333333333334 0  0.1666666666666667 0.8333333333333334 0  0.25 0.8333333333333334 0  0.3333333333333333 0.8333333333333334 0  0.4166666666666667 0.8333333333333334 0  0.5 0.8333333333333334 0  0.5833333333333334 0.8333333333333334 0  0.6666666666666666 0.8333333333333334 0  0.75 0.8333333333333334 0  0.8333333333333334 0.8333333333333334 0  0.9166666666666666 0.8333333333333334 0  1 0.8333333333333334 0  0 0.9166666666666666 0  0.08333333333333333 0.9166666666666666 0  0.1666666666666667 0.9166666666666666 0  0.25 0.9166666666666666 0  0.3333333333333333 0.9166666666666666 0  0.4166666666666667 0.9166666666666666 0  0.5 0.9166666666666666 0  0.5833333333333334 0.9166666666666666 0  0.6666666666666666 0.9166666666666666 0  0.75 0.9166666666666666 0  0.8333333333333334 0.9166666666666666 0  0.9166666666666666 0.9166666666666666 0  1 0.9166666666666666 0  0 1 0  0.08333333333333333 1 0  0.1666666666666667 1 0  0.25 1 0  0.3333333333333333 1 0  0.4166666666666667 1 0  0.5 1 0  0.5833333333333334 1 0  0.6666666666666666 1 0  0.75 1 0  0.8333333333333334 1 0  0.9166666666666666 1 0  1 1 0  0 0 0.08333333333333333  0.08333333333333333 0 0.08333333333333333  0.1666666666666667 0 0.08333333333333333  0.25 0 0.08333333333333333  0.3333333333333333 0 0.08333333333333333  0.4166666666666667 0 0.08333333333333333  0.5 0 0.08333333333333333  0.5833333333333334 0 0.08333333333333333  0.6666666666666666 0 0.08333333333333333  0.75 0 0.08333333333333333  0.8333333333333334 0 0.08333333333333333  0.9166666666666666 0 0.08333333333333333  1 0 0.08333333333333333  0 0.08333333333333333 0.08333333333333333  0.08333333333333333 0.08333333333333333 0.08333333333333333  0.1666666666666667 0.08333333333333333 0.08333333333333333  0.25 0.08333333333333333 0.08333333333333333  0.3333333333333333 0.08333333333333333 0.08333333333333333  0.4166666666666667 0.08333333333333333 0.08333333333333333  0.5 0.08333333333333333 0.08333333333333333  0.5833333333333334 0.08333333333333333 0.08333333333333333  0.6666666666666666 0.08333333333333333 0.08333333333333333  0.75 0.08333333333333333 0.08333333333333333  0.8333333333333334 0.08333333333333333 0.08333333333333333  0.9166666666666666 0.08333333333333333 0.08333333333333333  1 0.08333333333333333 0.08333333333333333  0 0.1666666666666667 0.08333333333333333  0.08333333333333333 0.1666666666666667 0.08333333333333333  0.1666666666666667 0.1666666666666667 0.08333333333333333  0.25 0.1666666666666667 0.08333333333333333  0.3333333333333333 0.1666666666666667 0.08333333333333333  0.4166666666666667 0.1666666666666667 0.08333333333333333  0.5 0.1666666666666667 0.08333333333333333  0.5833333333333334 0.1666666666666667 0.08333333333333333  0.6666666666666666 0.1666666666666667 0.08333333333333333  0.75 0.1666666666666667 0.08333333333333333  0.8333333333333334 0.1666666666666667 0.08333333333333333  0.9166666666666666 0.1666666666666667 0.08333333333333333  1 0.1666666666666667 0.08333333333333333  0 0.25 0.08333333333333333  0.08333333333333333 0.25 0.08333333333333333  0.1666666666666667 0.25 0.08333333333333333  0.25 0.25 0.08333333333333333  0.3333333333333333 0.25 0.08333333333333333  0.4166666666666667 0.25 0.08333333333333333  0.5 0.25 0.08333333333333333  0.5833333333333334 0.25 0.08333333333333333  0.6666666666666666 0.25 0.08333333333333333  0.75 0.25 0.08333333333333333  0.8333333333333334 0.25 0.08333333333333333  0.9166666666666666 0.25 0.08333333333333333  1 0.25 0.08333333333333333  0 0.3333333333333333 0.08333333333333333  0.08333333333333333 0.3333333333333333 0.08333333333333333  0.1666666666666667 0.3333333333333333 0.08333333333333333  0.25 0.3333333333333333 0.08333333333333333  0.3333333333333333 0.3333333333333333 0.08333333333333333  0.4166666666666667 0.3333333333333333 0.08333333333333333  0.5 0.3333333333333333 0.08333333333333333  0.5833333333333334 0.3333333333333333 0.08333333333333333  0.6666666666666666 0.3333333333333333 0.08333333333333333  0.75 0.3333333333333333 0.08333333333333333  0.8333333333333334 0.3333333333333333 0.08333333333333333  0.9166666666666666 0.3333333333333333 0.08333333333333333  1 0.3333333333333333 0.08333333333333333  0 0.4166666666666667 0.08333333333333333  0.08333333333333333 0.4166666666666667 0.08333333333333333  0.1666666666666667 0.4166666666666667 0.08333333333333333  0.25 0.4166666666666667 0.08333333333333333  0.3333333333333333 0.4166666666666667 0.08333333333333333  0.4166666666666667 0.4166666666666667 0.08333333333333333  0.5 0.4166666666666667 0.08333333333333333  0.5833333333333334 0.4166666666666667 0.08333333333333333  0.6666666666666666 0.4166666666666667 0.08333333333333333  0.75 0.4166666666666667 0.08333333333333333  0.8333333333333334 0.4166666666666667 0.08333333333333333  0.9166666666666666 0.4166666666666667 0.08333333333333333  1 0.4166666666666667 0.08333333333333333  0 0.5 0.08333333333333333  0.08333333333333333 0.5 0.08333333333333333  0.1666666666666667 0.5 0.08333333333333333  0.25 0.5 0.08333333333333333  0.3333333333333333 0.5 0.08333333333333333  0.4166666666666667 0.5 0.08333333333333333  0.5 0.5 0.08333333333333333  0.5833333333333334 0.5 0.08333333333333333  0.6666666666666666 0.5 0.08333333333333333  0.75 0.5 0.08333333333333333  0.8333333333333334 0.5 0.08333333333333333  0.9166666666666666 0.5 0.08333333333333333  1 0.5 0.08333333333333333  0 0.5833333333333334 0.08333333333333333  0.08333333333333333 0.5833333333333334 0.08333333333333333  0.1666666666666667 0.5833333333333334 0.08333333333333333  0.25 0.5833333333333334 0.08333333333333333  0.3333333333333333 0.5833333333333334 0.08333333333333333  0.4166666666666667 0.5833333333333334 0.08333333333333333  0.5 0.5833333333333334 0.08333333333333333  0.5833333333333334 0.5833333333333334 0.08333333333333333  0.6666666666666666 0.5833333333333334 0.08333333333333333  0.75 0.5833333333333334 0.08333333333333333  0.8333333333333334 0.5833333333333334 0.083
[...]
<PointData  Vectors="f_26"> 
<DataArray  type="Float64"  Name="f_26"  NumberOfComponents="3" format="ascii">0.0000000000000000e+00 0.0000000000000000e+00 0.0000000000000000e+00  1.9530332566859019e-02 1.9500906352773278e-02 1.9500906352777278e-02  2.9124012878076137e-02 2.6648447819698166e-02 2.6648447819706194e-02  3.7848432872879922e-02 3.0886863995367723e-02 3.0886863995369693e-02  4.6941522604301282e-02 3.3506355787005462e-02 3.3506355786995137e-02  5.6648971615893301e-02 3.5142244494120387e-02 3.5142244494107550e-02  6.6996927900743186e-02 3.6152791941115980e-02 3.6152791941105183e-02  7.7932822541660965e-02 3.6770736246157031e-02 3.6770736246147261e-02  8.9373968745486976e-02 3.7156241921092972e-02 3.7156241921074112e-02  1.0123009129087381e-01 3.7423463104665503e-02 3.7423463104647121e-02  1.1340923264737414e-01 3.7657112032794232e-02 3.7657112032777385e-02  1.2581140091391288e-01 3.7918679318759078e-02 3.7918679318734189e-02  1.3832820822614009e-01 3.8237968972930365e-02 3.8237968972909001e-02  0.0000000000000000e+00 0.0000000000000000e+00 0.0000000000000000e+00  1.3395930931018469e-02 1.3272498887218360e-02 2.0096761390636507e-02  2.4171473926774992e-02 2.1379729043999606e-02 2.7453788318981705e-02  3.4385016512015108e-02 2.5935369108486553e-02 3.1365598670118053e-02  4.4574026844055113e-02 2.8525046185925579e-02 3.3801665717870126e-02  5.5047082615583415e-02 2.9987383181207344e-02 3.5329489756608198e-02  6.5919185498871449e-02 3.0782253760156312e-02 3.6270056393906125e-02  7.7201560912792899e-02 3.1189605443334621e-02 3.6840246175723589e-02  8.8857215664424366e-02 3.1389464963150766e-02 3.7192111685485120e-02  1.0082990339289911e-01 3.1502878713367960e-02 3.7434907222506537e-02  1.1305605631453897e-01 3.1616579354950616e-02 3.7650977517947999e-02  1.2546460700753737e-01 3.1797712108951388e-02 3.7903314087066924e-02  1.3797146078904687e-01 3.2109586622915208e-02 3.8218993058879928e-02  0.0000000000000000e+00 0.0000000000000000e+00 0.0000000000000000e+00  1.2210197162476450e-02 9.1451859206999712e-03 2.1065954236257220e-02  2.1721564921023659e-02 1.6198869265113724e-02 2.8590298418649105e-02  3.1797896357929276e-02 2.0602460866702456e-02 3.2399582897158455e-02  4.2362673680422201e-02 2.3123885550237928e-02 3.4582042205973870e-02  5.3304648254009684e-02 2.4477945183928419e-02 3.5880252578203244e-02  6.4593477488690806e-02 2.5141520749577952e-02 3.6641224066400781e-02  7.6203333755063996e-02 2.5417105968113373e-02 3.7075689675345851e-02  8.8095857542676417e-02 2.5496847098127093e-02 3.7325986177405332e-02  1.0022614877499043e-01 2.5505676158190171e-02 3.7492611710788146e-02  1.1254726715127335e-01 2.5530671178368190e-02 3.7650793876654993e-02  1.2500680343597489e-01 2.5645208828832800e-02 3.7856488293578690e-02  1.3753917698570231e-01 2.5949759739939710e-02 3.8124914948713083e-02  0.0000000000000000e+00 0.0000000000000000e+00 0.0000000000000000e+00  1.1831991206758012e-02 6.3298552506360411e-03 2.1607047645680125e-02  2.0549906160545032e-02 1.1577177277262478e-02 2.9585909828935320e-02  3.0133403782919035e-02 1.5219993453861953e-02 3.3459332950188679e-02  4.0631943203928038e-02 1.7433324288733544e-02 3.5492570542176367e-02  5.1748979652591766e-02 1.8634712559362790e-02 3.6580677468305858e-02  6.3295038155775307e-02 1.9201550765805861e-02 3.7141355388269078e-02  7.5157254856875494e-02 1.9406301812901150e-02 3.7407952262003344e-02  8.7259202496719673e-02 1.9429893998644070e-02 3.7524659680471556e-02  9.9544453192402210e-02 1.9390188533962956e-02 3.7586206700130596e-02  1.1196823117763964e-01 1.9369102040077767e-02 3.7659419748275323e-02  1.2448770699445043e-01 1.9440261495977423e-02 3.7789986936213306e-02  1.3705572057937843e-01 1.9718750498632212e-02 3.7979803347102742e-02  0.0000000000000000e+00 0.0000000000000000e+00 0.0000000000000000e+00  1.1698837840442639e-02 4.0529874515838000e-03 2.1966725221404401e-02  1.9981634177981804e-02 7.5042009356290082e-03 3.0271459659194134e-02  2.9153763122823511e-02 1.0050217750515287e-02 3.4266830847811576e-02  3.9458342016068286e-02 1.1681521030976874e-02 3.6248865242522174e-02  5.0581007845877081e-02 1.2597217038105001e-02 3.7202493308533140e-02  6.2246160218885939e-02 1.3034294148050352e-02 3.7608044180211207e-02  7.4266284808512495e-02 1.3188274254878087e-02 3.7730218659832906e-02  8.6518894843754302e-02 1.3197927712317953e-02 3.7724114228710325e-02  9.8925009968351615e-02 1.3156181588355758e-02 3.7684258688666671e-02  1.1143289275621623e-01 1.3128526136145601e-02 3.7671816382332059e-02  1.2400365220211261e-01 1.3175609062459423e-02 3.7724048162410123e-02  1.3660793243833314e-01 1.3395697577022943e-02 3.7833073856214712e-02  0.0000000000000000e+00 0.0000000000000000e+00 0.0000000000000000e+00  1.1647766727995388e-02 2.0328229140781787e-03 2.2176994096237065e-02  1.9709410319296967e-02 3.7747151651878171e-03 3.0670441380593015e-02  2.8636557764357140e-02 5.0965576967004931e-03 3.4760343397553087e-02  3.8784966843009812e-02 5.9739410990060689e-03 3.6734456080700327e-02  4.9865059777541659e-02 6.4832452557308596e-03 3.7618054331383335e-02  6.1569567079862532e-02 6.7354173410275088e-03 3.7930036112720389e-02  7.3668641829435569e-02 6.8312805644858369e-03 3.7958361416447130e-02  8.6007189275699988e-02 6.8461682199095261e-03 3.7868455140650056e-02  9.8486924900141368e-02 6.8318114693253634e-03 3.7756855468869914e-02  1.1104791822476236e-01 6.8250116755669546e-03 3.7682022393537205e-02  1.2365240199899355e-01 6.8595219567477959e-03 3.7676205841047958e-02  1.3628425188544091e-01 6.9901826933996981e-03 3.7726175594150084e-02  0.0000000000000000e+00 0.0000000000000000e+00 0.0000000000000000e+00  1.1622840893550678e-02 1.2630460454996252e-04 2.2249985795938197e-02  1.9613454348919784e-02 2.1036155901779430e-04 3.0806973279597912e-02  2.8461394193503822e-02 2.7001521713129848e-04 3.4933026893862393e-02  3.8552131341507527e-02 3.1559821797853951e-04 3.6908967062728400e-02  4.9608675943027071e-02 3.5135975027209053e-04 3.7770434842091791e-02  6.1318318883111171e-02 3.8067174117008447e-04 3.8049868237889785e-02  7.3438931511065592e-02 4.0689026395633528e-04 3.8044258797648264e-02  8.5804135854094354e-02 4.3246741941768121e-04 3.7923350122853826e-02  9.8308060423102417e-02 4.5880703632254782e-04 3.7784785421287416e-02  1.1088699085657396e-01 4.8634160255177166e-04 3.7686172487688012e-02  1.2350327192043380e-01 5.1353007725410383e-04 3.7657931132025937e-02  1.3614693522617685e-01 5.3697967614101778e-04 3.7685335920280998e-02  0.0000000000000000e+00 0.0000000000000000e+00 0.0000000000000000e+00  1.1606912012509409e-02 -1.7665609663807928e-03 2.2190823534101956e-02  1.9662014247292865e-02 -3.3384490374118998e-03 3.0690877528176383e-02  2.8593002324422013e-02 -4.5431814789289593e-03 3.4788461136521245e-02  3.8737405565955875e-02 -5.3343349372460850e-03 3.6764412133651503e-02  4.9808828997569048e-02 -5.7772119060559820e-03 3.7644030981780492e-02  6.1505457472787864e-02 -5.9742342629154309e-03 3.7949853097976438e-02  7.3599651831831189e-02 -6.0193537180789815e-03 3.7972079176178002e-02  8.5936135522876600e-02 -5.9835911228951480e-03 3.7876968427876627e-02  9.8415544075814029e-02 -5.9165088012735085e-03 3.7761182172809764e-02  1.1097673931559258e-01 -5.8543345567976949e-03 3.7682796836704828e-02  1.2358168913726597e-01 -5.8334601448910787e-03 3.7673310787306957e-02  1.3621851873265295e-01 -5.9153850538266059e-03 3.7719846781081014e-02  0.0000000000000000e+00 0.0000000000000000e+00 0.0000000000000000e+00  1.1608391938080578e-02 -3.7421992042807823e-03 2.1999599569693652e-02  1.9891735581967433e-02 -7.0174300498192363e-03 3.0319937329610965e-02  2.9070994736766709e-02 -9.4560347562646918e-03 3.4330300652982718e-02  3.9361323785442132e-02 -1.1019044460249717e-02 3.6311691868052852e-02  5.0464139555924943e-02 -1.1884273579163338e-02 3.7254041267805009e-02  6.2114461568933382e-02 -1.2275765012942561e-02 3.7645743707842176e-02  7.4126811208067758e-02 -1.2382925083337628e-02 3.7755337200903891e-02  8.6376923152138171e-02 -1.2342554963316314e-02 3.7739055893031843e-02  9.8783377407012721e-02 -1.2247445826278786e-02 3.7691358113689427e-02  1.1129235857110159e-01 -1.2163442513070520e-02 3.7672584450494470e-02  1.2386435100111136e-01 -1.2152454923704150e-02 3.7718551912181299e-02  1.3647742625162174e-01 -1.2318053385013725e-02 3.7821568822301914e-02  0.0000000000000000e+00 0.0000000000000000e+00 0.0000000000000000e+00  1.1686468650540812e-02 -5.9315712582709915e-03 2.1672467939772306e-02  2.0440809302569935e-02 -1.0990309711965757e-02 2.9684593468560783e-02  3.0016513891680301e-02 -1.4558823714220353e-02 3.3572025788193696e-02  4.0476235181156152e-02 -1.6743811842095963e-02 3.5590926567017359e-02  5.1561176374798866e-02 -1.7921124992515712e-02 3.6654084019835310e-02  6.3090035235592493e-02 -1.8453923742380720e-02 3.7190889655610002e-02  7.4946059948009555e-02 -1.8614210856337694e-02 3.7438498073808481e-02  8.7047726605469972e-02 -1.8586177913319481e-02 3.7541282484086252e-02  9.9335104415817180e-02 -1.8490734289532951e-02 3.7592861330688281e-02  1.1176142179615658e-01 -1.8411509030326258e-02 3.7658526242892308e-02  1.2428324388912061e-01 -1.8421395093908725e-02 3.7782128931169438e-02  1.3686141476141583e-01 -1.8635620837425475e-02 3.7964989194391903e-02  0.0000000000000000e+00 0.0000000000000000e+00 0.0000000000000000e+00  1.2078021555116145e-02 -8.5788225386948542e-03 2.1207206675982620e-02  2.1639566406160351e-02 -1.5440624215410217e-02 2.8788014633371748e-02  3.1629022455625745e-02 -1.9868109575344000e-02 3.2576941149915974e-02  4.2122069198888785e-02 -2.2430098736890253e-02 3.4708879921029528e-02  5.3032102791318168e-02 -2.3785396212235316e-02 3.5959988291055373e-02  6.4312163161875865e-02 -2.4417422699604174e-02 3.6687282793696353e-02  7.5922712225575367e-02 -2.4643593553386502e-02 3.7100025703922512e-02  8.7818832940658884e-02 -2.4665988794012755e-02 3.7336727727784347e-02  9.9952937292397473e-02 -2.4614647982016041e-02 3.7494540832115494e-02  1.1227734966792659e-01 -2.4578898788688054e-02 3.7646167457116943e-02  1.2474004270802200e-01 -2.4630079767609111e-02 3.7846065589063151e-02  1.3728060933003255e-01 -2.4859094772752156e-02 3.8108800599860763e-02  0.0000000000000000e+00 0.0000000000000000e+00 0.0000000000000000e+00  1.3618019159180284e-02 -1.2241948799404920e-02 2.0650819435918743e-02  2.4076249357889958e-02 -2.0486521341471699e-02 2.7739130084875829e-02  3.4068830777819969e-02 -2.5230916084029421e-02 3.1560869080267763e-02  4.4205997540765103e-02 -2.7887976729440402e-02 3.3900628749109554e-02  5.4681558726932325e-02 -2.9335370828078355e-02 3.5373334518543013e-02  6.5564919880909928e-02 -3.0080541335508120e-02 3.6287253431946338e-02  7.6856983306998181e-02 -3.0426855657448990e-02 3.6844832461622200e-02  8.8519627051989777e-02 -3.0563361397674307e-02 3.7190449267443179e-02  1.0049694751546513e-01 -3.0613649958355960e-02 3.7429547204970152e-02  1.1272596440815036e-01 -3.0664346106803526e-02 3.7642206460789994e-02  1.2513695271954603e-01 -3.0780753559051324e-02 3.7890681580976186e-02  1.3764702365379508e-01 -3.1014271504219197e-02 3.8204025289818491e-02  0.0000000000000000e+00 0.0000000000000000e+00 0.0000000000000000e+00  1.8172286093653626e-02 -1.8485733202764691e-02 1.9791045610121221e-02  2.8106318184109646e-02 -2.6033409164858065e-02 2.7130616097981907e-02  3.7069593816678237e-02 -3.0295013022991937e-02 3.1089669801356128e-02  4.6340613080074450e-02 -3.2885666927164020e-02 3.3559287702872607e-02  5.6148556899249046e-02 -3.4471178312768865e-02 3.5140853133217465e-02  6.6547502794391089e-02 -3.5424072681295632e-02 3.6137173109740663e-02  7.7509336278393737e-02 -3.5983100657347472e-02 3.6753818252565323e-02  8.8964274489423470e-02 -3.6310207886310772e-02 3.7141140403514815e-02  1.0082844127683793e-01 -3.6519639294626927e-02 3.7409903542224912e-02  1.1301451911358361e-01 -3.6695074829076302e-02 3.7643336647043696e-02  1.2542538391747785e-01 -3.6896064968578973e-02 3.7903747177649279e-02  1.3793812037066544e-01 -3.7149995607923966e-02 3.8224778628729077e-02  0.0000000000000000e+00 0.0000000000000000e+00 0.0000000000000000e+00  1.3395930931018381e-02 2.0096761390635667e-02 1.3272498887222385e-02  2.4171473926776127e-02 2.7453788318981862e-02 2.1379729044006458e-02  3.4385016512019119e-02 3.1365598670118455e-02 2.5935369108490747e-02  4.4574026844061018e-02 3.3801665717879362e-02 2.8525046185917648e-02  5.5047082615589479e-02 3.5329489756626219e-02 2.9987383181196241e-02  6.5919185498871907e-02 3.6270056393918872e-02 3.0782253760144995e-02  7.7201560912797007e-02 3.6840246175740103e-02 3.1189605443324307e-02  8.8857215664427683e-02 3.7192111685504278e-02 3.1389464963136320e-02  1.0082990339289820e-01 3.7434907222534210e-02 3.1502878713351438e-02  1.1305605631453911e-01 3.7650977517977892e-02 3.1616579354934192e-02  1.2546460700753595e-01 3.7903314087094901e-02 3.1797712108928469e-02  1.3797146078904604e-01 3.8218993058909308e-02 3.2109586622891519e-02  0.0000000000000000e+00 0.0000000000000000e+00 0.0000000000000000e+00  7.1742092359948634e-03 1.3408362160865037e-02 1.3408362160865731e-02  1.9318346487492557e-02 2.1366179876663699e-02 2.1366179876665604e-02  3.1162651756616349e-02 2.5876082620776415e-02 2.5876082620777768e-02  4.2420981014999998e-02 2.8470113607398120e-02 2.8470113607393759e-02  5.3604073690550549e-02 2.9941841614925312e-02 2.9941841614910286e-02  6.4954459785742380e-02 3.0746338296778315e-02 3.0746338296766106e-02  7.6550780648313874e-02 3.1163112376448261e-02 3.1163112376433651e-02  8.8398992814991015e-02 3.1371936399087225e-02 3.1371936399066963e-02  1.0047407546805058e-01 3.1493705017413103e-02 3.1493705017389538e-02  1.1273817142584375e-01 3.1615388720476915e-02 3.1615388720449264e-02  1.2514512503236017e-01 3.1804024693944520e-02 3.1804024693915786e-02  1.3762902769808488e-01 3.2108063470990426e-02 3.2108063470963739e-02  0.0000000000000000e+00 0.0000000000000000e+00 0.0000000000000000e+00  5.8032543477841347e-03 8.8315063934323122e-03 1.4111991099442094e-02  1.6715314905214919e-02 1.5917242667025048e-02 2.2302273523635861e-02  2.8542702078184358e-02 2.0281206800809463e-02 2.6698714310713488e-02  4.0257807738600979e-02 2.2834875124349268e-02 2.9106105322245439e-02  5.1937397192534054e-02 2.4246112094177038e-02 3.0394938901137432e-02  6.3706163895646289e-02 2.4969652464421961e-02 3.1050321449105380e-02  7.5621768473910653e-02 2.5299077522426855e-02 3.1353998822261829e-02  8.7696479302420208e-02 2.5424292521071184e-02 3.1479716699809999e-02  9.9920334541574840e-02 2.5470953313363187e-02 3.1541171774930890e-02  1.1227416258720276e-01 2.5527923683926326e-02 3.1618742765985815e-02  1.2473222583632171e-01 2.5668458816209602e-02 3.1771956224103039e-02  1.3724859088919605e-01 2.5969010486469421e-02 3.2036410685380823e-02  0.0000000000000000e+00 0.0000000000000000e+00 0.0000000000000000e+00  5.2359960864178925e-03 6.0125931451603266e-03 1.4625644517057917e-02  1.5416623504176210e-02 1.1226610658727971e-02 2.3208082609733491e-02  2.6863693927960949e-02 1.4829418721394864e-02 2.7667774238172991e-02  3.8582450244391803e-02 1.7067607792325464e-02 2.9941538344967211e-02  5.0464408082614022e-02 1.8330137629829085e-02 3.1042234554602782e-02  6.2493902468188881e-02 1.8969144811534940e-02 3.1514073297493249e-02  7.4654631648383971e-02 1.9243115838650578e-02 3.1662370991193206e-02  8.6928445760746972e-02 1.9327497649056734e-02 3.1664854062262514e-02  9.9298319401591617e-02 1.9339566521371067e-02 3.1630899046260694e-02  1.1175017836906691e-01 1.9362724557708433e-02 3.1633795937269872e-02  1.2427080335460461e-01 1.9470210408094244e-02 3.1725252897706696e-02  1.3683505171066596e-01 1.9750793207111837e-02 3.1934159676541535e-02  0.0000000000000000e+00 0.0000000000000000e+00 0.0000000000000000e+00  4.9702543047137823e-03 3.8090242123007935e-03 1.4986615510979942e-02  1.4730162917190011e-02 7.2226199446729072e-03 2.3873746390767510e-02  2.5849763477205506e-02 9.7299858237981061e-03 2.8437754832149255e-02  3.7442310256888656e-02 1.1371814680711028e-02 3.0660842328268049e-02  4.9362763153011011e-02 1.2330686876074613e-02 3.1634414212042973e-02  6.1520114848671072e-02 1.2825382811115374e-02 3.1959484980873115e-02  7.3835375915325810e-02 1.3038336409927988e-02 3.1970674129587172e-02  8.6252243914440127e-02 1.3101906199472865e-02 3.1856894927039255e-02  9.8735917495504769e-02 1.3107290371697951e-02 3.1728295094366241e-02  1.1126840922617240e-01 1.3120504190244502e-02 3.1654070766926383e-02  1.2384312363448019e-01 1.3201700592746467e-02 3.1680743774936057e-02  1.3645410513924375e-01 1.3427341291333548e-02 3.1834794684265103e-02  0.0000000000000000e+00 0.0000000000000000e+00 0.0000000000000000e+00  4.8419393350722529e-03 1.8772621186459604e-03 1.5198223087593511e-02  1.4380390065200969e-02 3.6111992839072682e-03 2.4270235558728877e-02  2.5301529664760607e-02 4.9110267466673570e-03 2.8917821160136355e-02  3.6782324759308350e-02 5.7940127362902331e-03 3.1129089312066382e-02  4.8686387950317600e-02 6.3262816785027032e-03 3.2034155103429697e-02  6.0892773133352097e-02 6.6103371446412686e-03 3.2269232599582594e-02  7.3286997913893412e-02 6.7400193786146022e-03 3.2190540941966883e-02  8.5785849295363065e-02 6.7866616336967776e-03 3.1996980048076738e-02  9.8338956779765258e-02 6.8005446425080255e-03 3.1801123167919970e-02  1.1092250319009304e-01 6.8184400943006439e-03 3.1670603205360963e-02  1.2353286592847548e-01 6.8740654828602660e-03 3.1649412087398396e-02  1.3617794579385298e-01 7.0104966443460433e-03 3.1763895264035884e-02  0.0000000000000000e+00 0.0000000000000000e+00 0.0000000000000000e+00  4.7924609989830856e-03 5.8751221114236493e-05 1.5269990082790893e-02  1.4256666866780213e-02 1.7861154236633112e-04 2.4404311496612770e-02  2.5112267650253567e-02 2.4273474963309465e-04 2.9084065535191817e-02  3.6550922408634882e-02 2.9533749829708324e-04 3.1295223400573974e-02  4.8442184964999926e-02 3.3580260088662340e-04 3.2178538009673824e-02  6.0658670408034056e-02 3.6859072473009648e-04 3.2382629369785060e-02  7.3075414615010187e-02 3.9774575373565464e-04 3.2271949336339929e-02  8.5599998481225709e-02 4.2587354837253624e-04 3.2049405385576303e-02  9.8176002175769980e-02 4.5432628724768187e-04 3.1828710354163174e-02  1.1077682401156763e-01 4.8350191613610443e-04 3.1677062503963897e-02  1.2339960294490089e-01 5.1267215159533886e-04 3.1637634167375112e-02  1.3605832355150715e-01 5.3980888246797859e-04 3.1737165640948445e-02  0.0000000000000000e+00 0.0000000000000000e+00 0.0000000000000000e+00  4.8027410116521230e-03 -1.7536542897734300e-03 1.5206078764014233e-02  1.4327978003382359e-02 -3.2422320934405017e-03 2.4282153560460998e-02  2.5250271625210492e-02 -4.4140523270395022e-03 2.8934853962130174e-02  3.6729154975667436e-02 -5.1962245839051700e-03 3.1147324726322909e-02  4.8628398424544979e-02 -5.6520042747393194e-03 3.2049680845110118e-02  6.0829848900138248e-02 -5.8732243896936183e-03 3.2280884109347353e-02  7.3220721211354173e-02 -5.9457814586354020e-03 3.2198596156596905e-02  8.5718047649642956e-02 -5.9364463892426847e-03 3.2002083546260073e-02  9.8270892010800331e-02 -5.8933443116985949e-03 3.1803816372645559e-02  1.1085458134270450e-01 -5.8526843354874594e-03 3.1671091202890113e-02  1.2346518660335651e-01 -5.8494307915076893e-03 3.1647503131426606e-02  1.3611397381948051e-01 -5.9307269418598157e-03 3.1759983611924364e-02  0.0000000000000000e+00 0.0000000000000000e+00 0.0000000000000000e+00  4.8790371598218338e-03 -3.6667441847491604e-03 1.5003880456929969e-02  1.4625528426826072e-02 -6.8141309947357702e-03 2.3904246034449982e-02  2.5749852609397602e-02 -9.1974216533614178e-03 2.8477581899073321e-02  3.7335493403237906e-02 -1.0754259469632316e-02 3.0699116472245491e-02  4.9244635948697706e-02 -1.1650039227770699e-02 3.1664848138900997e-02  6.1392386427881654e-02 -1.2089304737063482e-02 3.1981366832638129e-02  7.3702077353996628e-02 -1.2247941365437264e-02 3.1985294849946104e-02  8.6116932713685576e-02 -1.2255923566368990e-02 3.1865801722566721e-02  9.8600738486072273e-02 -1.2203907237659592e-02 3.17326757391