<?xml version="1.0"?>
<VTKFile type="UnstructuredGrid"  version="0.1"  >
<UnstructuredGrid>
<Piece  NumberOfPoints="2197" NumberOfCells="10368">
<Points>
<DataArray  type="Float64"  NumberOfComponents="3"  format="ascii">0 0 0  0.08333333333333333 0 0  0.1666666666666667 0 0  0.25 0 0  0.3333333333333333 0 0  0.4166666666666667 0 0  0.5 0 0  0.5833333333333334 0 0  0.6666666666666666 0 0  0.75 0 0  0.8333333333333334 0 0  0.9166666666666666 0 0  1 0 0  0 0.08333333333333333 0  0.08333333333333333 0.08333333333333333 0  0.1666666666666667 0.08333333333333333 0  0.25 0.08333333333333333 0  0.3333333333333333 0.08333333333333333 0  0.4166666666666667 0.08333333333333333 0  0.5 0.08333333333333333 0  0.5833333333333334 0.08333333333333333 0  0.6666666666666666 0.08333333333333333 0  0.75 0.08333333333333333 0  0.8333333333333334 0.08333333333333333 0  0.9166666666666666 0.08333333333333333 0  1 0.08333333333333333 0  0 0.1666666666666667 0  0.08333333333333333 0.1666666666666667 0  0.1666666666666667 0.1666666666666667 0  0.25 0.1666666666666667 0  0.3333333333333333 0.1666666666666667 0  0.4166666666666667 0.1666666666666667 0  0.5 0.1666666666666667 0  0.5833333333333334 0.1666666666666667 0  0.6666666666666666 0.1666666666666667 0  0.75 0.1666666666666667 0  0.8333333333333334 0.1666666666666667 0  0.9166666666666666 0.1666666666666667 0  1 0.1666666666666667 0  0 0.25 0  0.08333333333333333 0.25 0  0.1666666666666667 0.25 0  0.25 0.25 0  0.3333333333333333 0.25 0  0.4166666666666667 0.25 0  0.5 0.25 0  0.5833333333333334 0.25 0  0.6666666666666666 0.25 0  0.75 0.25 0  0.8333333333333334 0.25 0  0.9166666666666666 0.25 0  1 0.25 0  0 0.3333333333333333 0  0.08333333333333333 0.3333333333333333 0  0.1666666666666667 0.3333333333333333 0  0.25 0.3333333333333333 0  0.3333333333333333 0.3333333333333333 0  0.4166666666666667 0.3333333333333333 0  0.5 0.3333333333333333 0  0.5833333333333334 0.3333333333333333 0  0.6666666666666666 0.3333333333333333 0  0.75 0.3333333333333333 0  0.8333333333333334 0.3333333333333333 0  0.9166666666666666 0.3333333333333333 0  1 0.3333333333333333 0  0 0.4166666666666667 0  0.08333333333333333 0.4166666666666667 0  0.1666666666666667 0.4166666666666667 0  0.25 0.4166666666666667 0  0.3333333333333333 0.4166666666666667 0  0.4166666666666667 0.4166666666666667 0  0.5 0.4166666666666667 0  0.5833333333333334 0.4166666666666667 0  0.6666666666666666 0.4166666666666667 0  0.75 0.4166666666666667 0  0.8333333333333334 0.4166666666666667 0  0.9166666666666666 0.4166666666666667 0  1 0.4166666666666667 0  0 0.5 0  0.08333333333333333 0.5 0  0.1666666666666667 0.5 0  0.25 0.5 0  0.3333333333333333 0.5 0  0.4166666666666667 0.5 0  0.5 0.5 0  0.5833333333333334 0.5 0  0.6666666666666666 0.5 0  0.75 0.5 0  0.8333333333333334 0.5 0  0.9166666666666666 0.5 0  1 0.5 0  0 0.5833333333333334 0  0.08333333333333333 0.5833333333333334 0  0.1666666666666667 0.5833333333333334 0  0.25 0.5833333333333334 0  0.3333333333333333 0.5833333333333334 0  0.4166666666666667 0.5833333333333334 0  0.5 0.5833333333333334 0  0.5833333333333334 0.5833333333333334 0  0.6666666666666666 0.5833333333333334 0  0.75 0.5833333333333334 0  0.8333333333333334 0.5833333333333334 0  0.9166666666666666 0.5833333333333334 0  1 0.5833333333333334 0  0 0.6666666666666666 0  0.08333333333333333 0.6666666666666666 0  0.1666666666666667 0.6666666666666666 0  0.25 0.6666666666666666 0  0.3333333333333333 0.6666666666666666 0  0.4166666666666667 0.6666666666666666 0  0.5 0.6666666666666666 0  0.5833333333333334 0.6666666666666666 0  0.6666666666666666 0.6666666666666666 0  0.75 0.6666666666666666 0  0.8333333333333334 0.6666666666666666 0  0.9166666666666666 0.6666666666666666 0  1 0.6666666666666666 0  0 0.75 0  0.08333333333333333 0.75 0  0.1666666666666667 0.75 0  0.25 0.75 0  0.3333333333333333 0.75 0  0.4166666666666667 0.75 0  0.5 0.75 0  0.5833333333333334 0.75 0  0.6666666666666666 0.75 0  0.75 0.75 0  0.8333333333333334 0.75 0  0.9166666666666666 0.75 0  1 0.75 0  0 0.8333333333333334 0  0.08333333333333333 0.8333333333333334 0  0.1666666666666667 0.8333333333333334 0  0.25 0.8333333333333334 0  0.3333333333333333 0.8333333333333334 0  0.4166666666666667 0.8333333333333334 0  0.5 0.8333333333333334 0  0.5833333333333334 0.8333333333333334 0  0.6666666666666666 0.8333333333333334 0  0.75 0.8333333333333334 0  0.8333333333333334 0.8333333333333334 0  0.9166666666666666 0.8333333333333334 0  1 0.8333333333333334 0  0 0.9166666666666666 0  0.08333333333333333 0.9166666666666666 0  0.1666666666666667 0.9166666666666666 0  0.25 0.9166666666666666 0  0.3333333333333333 0.9166666666666666 0  0.4166666666666667 0.9166666666666666 0  0.5 0.9166666666666666 0  0.5833333333333334 0.9166666666666666 0  0.6666666666666666 0.9166666666666666 0  0.75 0.9166666666666666 0  0.8333333333333334 0.9166666666666666 0  0.9166666666666666 0.9166666666666666 0  1 0.9166666666666666 0  0 1 0  0.08333333333333333 1 0  0.1666666666666667 1 0  0.25 1 0  0.3333333333333333 1 0  0.4166666666666667 1 0  0.5 1 0  0.5833333333333334 1 0  0.6666666666666666 1 0  0.75 1 0  0.8333333333333334 1 0  0.9166666666666666 1 0  1 1 0  0 0 0.08333333333333333  0.08333333333333333 0 0.08333333333333333  0.1666666666666667 0 0.08333333333333333  0.25 0 0.08333333333333333  0.3333333333333333 0 0.08333333333333333  0.4166666666666667 0 0.08333333333333333  0.5 0 0.08333333333333333  0.5833333333333334 0 0.08333333333333333  0.6666666666666666 0 0.08333333333333333  0.75 0 0.08333333333333333  0.8333333333333334 0 0.08333333333333333  0.9166666666666666 0 0.08333333333333333  1 0 0.08333333333333333  0 0.08333333333333333 0.08333333333333333  0.08333333333333333 0.08333333333333333 0.08333333333333333  0.1666666666666667 0.08333333333333333 0.08333333333333333  0.25 0.08333333333333333 0.08333333333333333  0.3333333333333333 0.08333333333333333 0.08333333333333333  0.4166666666666667 0.08333333333333333 0.08333333333333333  0.5 0.08333333333333333 0.08333333333333333  0.5833333333333334 0.08333333333333333 0.08333333333333333  0.6666666666666666 0.08333333333333333 0.08333333333333333  0.75 0.08333333333333333 0.08333333333333333  0.8333333333333334 0.08333333333333333 0.08333333333333333  0.9166666666666666 0.08333333333333333 0.08333333333333333  1 0.08333333333333333 0.08333333333333333  0 0.1666666666666667 0.08333333333333333  0.08333333333333333 0.1666666666666667 0.08333333333333333  0.1666666666666667 0.1666666666666667 0.08333333333333333  0.25 0.1666666666666667 0.08333333333333333  0.3333333333333333 0.1666666666666667 0.08333333333333333  0.4166666666666667 0.1666666666666667 0.08333333333333333  0.5 0.1666666666666667 0.08333333333333333  0.5833333333333334 0.1666666666666667 0.08333333333333333  0.6666666666666666 0.1666666666666667 0.08333333333333333  0.75 0.1666666666666667 0.08333333333333333  0.8333333333333334 0.1666666666666667 0.08333333333333333  0.9166666666666666 0.1666666666666667 0.08333333333333333  1 0.1666666666666667 0.08333333333333333  0 0.25 0.08333333333333333  0.08333333333333333 0.25 0.08333333333333333  0.1666666666666667 0.25 0.08333333333333333  0.25 0.25 0.08333333333333333  0.3333333333333333 0.25 0.08333333333333333  0.4166666666666667 0.25 0.08333333333333333  0.5 0.25 0.08333333333333333  0.5833333333333334 0.25 0.08333333333333333  0.6666666666666666 0.25 0.08333333333333333  0.75 0.25 0.08333333333333333  0.8333333333333334 0.25 0.08333333333333333  0.9166666666666666 0.25 0.08333333333333333  1 0.25 0.08333333333333333  0 0.3333333333333333 0.08333333333333333  0.08333333333333333 0.3333333333333333 0.08333333333333333  0.1666666666666667 0.3333333333333333 0.08333333333333333  0.25 0.3333333333333333 0.08333333333333333  0.3333333333333333 0.3333333333333333 0.08333333333333333  0.4166666666666667 0.3333333333333333 0.08333333333333333  0.5 0.3333333333333333 0.08333333333333333  0.5833333333333334 0.3333333333333333 0.08333333333333333  0.6666666666666666 0.3333333333333333 0.08333333333333333  0.75 0.3333333333333333 0.08333333333333333  0.8333333333333334 0.3333333333333333 0.08333333333333333  0.9166666666666666 0.3333333333333333 0.08333333333333333  1 0.3333333333333333 0.08333333333333333  0 0.4166666666666667 0.08333333333333333  0.08333333333333333 0.4166666666666667 0.08333333333333333  0.1666666666666667 0.4166666666666667 0.08333333333333333  0.25 0.4166666666666667 0.08333333333333333  0.3333333333333333 0.4166666666666667 0.08333333333333333  0.4166666666666667 0.4166666666666667 0.08333333333333333  0.5 0.4166666666666667 0.08333333333333333  0.5833333333333334 0.4166666666666667 0.08333333333333333  0.6666666666666666 0.4166666666666667 0.08333333333333333  0.75 0.4166666666666667 0.08333333333333333  0.8333333333333334 0.4166666666666667 0.08333333333333333  0.9166666666666666 0.4166666666666667 0.08333333333333333  1 0.4166666666666667 0.08333333333333333  0 0.5 0.08333333333333333  0.08333333333333333 0.5 0.08333333333333333  0.1666666666666667 0.5 0.08333333333333333  0.25 0.5 0.08333333333333333  0.3333333333333333 0.5 0.08333333333333333  0.4166666666666667 0.5 0.08333333333333333  0.5 0.5 0.08333333333333333  0.5833333333333334 0.5 0.08333333333333333  0.6666666666666666 0.5 0.08333333333333333  0.75 0.5 0.08333333333333333  0.8333333333333334 0.5 0.08333333333333333  0.9166666666666666 0.5 0.08333333333333333  1 0.5 0.08333333333333333  0 0.5833333333333334 0.08333333333333333  0.08333333333333333 0.5833333333333334 0.08333333333333333  0.1666666666666667 0.5833333333333334 0.08333333333333333  0.25 0.5833333333333334 0.08333333333333333  0.3333333333333333 0.5833333333333334 0.08333333333333333  0.4166666666666667 0.5833333333333334 0.08333333333333333  0.5 0.5833333333333334 0.08333333333333333  0.5833333333333334 0.5833333333333334 0.08333333333333333  0.6666666666666666 0.5833333333333334 0.08333333333333333  0.75 0.5833333333333334 0.08333333333333333  0.8333333333333334 0.5833333333333334 0.083
[...]
<PointData  Vectors="f_26"> 
<DataArray  type="Float64"  Name="f_26"  NumberOfComponents="3" format="ascii">0.0000000000000000e+00 0.0000000000000000e+00 0.0000000000000000e+00  1.6497856586958955e-02 2.1298591273991578e-02 2.1298591273986582e-02  2.8814253233210713e-02 2.8837775855447428e-02 2.8837775855432055e-02  4.1070919787386771e-02 3.3145730641655574e-02 3.3145730641630879e-02  5.4104964715058476e-02 3.5673107640235326e-02 3.5673107640195656e-02  6.8036004268932262e-02 3.7135491179303544e-02 3.7135491179254590e-02  8.2768102580162720e-02 3.7954313837571182e-02 3.7954313837518398e-02  9.8136864225749590e-02 3.8392975641528881e-02 3.8392975641473794e-02  1.1397729198082344e-01 3.8615233223423230e-02 3.8615233223370578e-02  1.3015190834281970e-01 3.8720999710266588e-02 3.8720999710207649e-02  1.4655711069408886e-01 3.8770658505218679e-02 3.8770658505156513e-02  1.6311812992320429e-01 3.8798913921055812e-02 3.8798913920998067e-02  1.7979024603128452e-01 3.8810029109982977e-02 3.8810029109923115e-02  0.0000000000000000e+00 0.0000000000000000e+00 0.0000000000000000e+00  1.2139314214392067e-02 1.4930498484517189e-02 2.1707064437788845e-02  2.5305503716459701e-02 2.3209232207814050e-02 2.9310271020884765e-02  3.8711598368474189e-02 2.7671032778956862e-02 3.3443524948636151e-02  5.2600285132699431e-02 3.0059988855686514e-02 3.5862225999351953e-02  6.7109948344304310e-02 3.1311552654107441e-02 3.7251392606874364e-02  8.2215887005153809e-02 3.1935539436860276e-02 3.8022137197695718e-02  9.7817906859732601e-02 3.2221847656054202e-02 3.8430780270711812e-02  1.1379934125214117e-01 3.2334781732126401e-02 3.8635121143074221e-02  1.3005615956343428e-01 3.2365679527611733e-02 3.8730426822204421e-02  1.4650718592141901e-01 3.2364418106760329e-02 3.8773885722154351e-02  1.6309324194450864e-01 3.2357189003224325e-02 3.8800430601305447e-02  1.7976915282213546e-01 3.2356873896484832e-02 3.8817245008377695e-02  0.0000000000000000e+00 0.0000000000000000e+00 0.0000000000000000e+00  1.0989817827511475e-02 1.0583158356498822e-02 2.3345795624282052e-02  2.3174376657156614e-02 1.7914770349478089e-02 3.0752747081297310e-02  3.6643792293373181e-02 2.2115961021541990e-02 3.4488286451520446e-02  5.0976178054895134e-02 2.4308876307950991e-02 3.6546749397114983e-02  6.5949324591193820e-02 2.5371311423344291e-02 3.7677233171813054e-02  8.1432094168194871e-02 2.5832713487322287e-02 3.8275768802497258e-02  9.7310163694317386e-02 2.5993449201526377e-02 3.8575132870100434e-02  1.1348089742453456e-01 2.6016366578403009e-02 3.8712779756539258e-02  1.2986040013380498e-01 2.5985535866909448e-02 3.8768368056384339e-02  1.4638605705453045e-01 2.5942399182744293e-02 3.8788217255662449e-02  1.6301285211983185e-01 2.5908154309801409e-02 3.8800760982002039e-02  1.7970363157515620e-01 2.5901864496956820e-02 3.8810801150103401e-02  0.0000000000000000e+00 0.0000000000000000e+00 0.0000000000000000e+00  1.0520298641035273e-02 7.3650300042064961e-03 2.4447255748998774e-02  2.1939757576269023e-02 1.2983777540015975e-02 3.2232841815340571e-02  3.5095232781054073e-02 1.6486876852590315e-02 3.5766381778045288e-02  4.9542579372440644e-02 1.8360100954272915e-02 3.7472631263525777e-02  6.4807339688829110e-02 1.9235586790826542e-02 3.8289127892038644e-02  8.0599283642453196e-02 1.9573789413896002e-02 3.8655447868864962e-02  9.6737792952410834e-02 1.9652443761815876e-02 3.8798399529305763e-02  1.1310360706733730e-01 1.9622112420454620e-02 3.8836588788991454e-02  1.2961749105211301e-01 1.9557533612137374e-02 3.8830995420348936e-02  1.4622831775633505e-01 1.9492973738263798e-02 3.8813128225050987e-02  1.6290295220782844e-01 1.9445772914636693e-02 3.8801151768742263e-02  1.7961425745769824e-01 1.9436256515706216e-02 3.8797352415385053e-02  0.0000000000000000e+00 0.0000000000000000e+00 0.0000000000000000e+00  1.0312722830377666e-02 4.6930893860480825e-03 2.5173410852562358e-02  2.1267617940629566e-02 8.4394402274366783e-03 3.3346244578390881e-02  3.4084430106592720e-02 1.0917821001663906e-02 3.6843928956258445e-02  4.8481557676824154e-02 1.2287858836669914e-02 3.8319963687239451e-02  6.3887238577603409e-02 1.2924900780015474e-02 3.8882090263101118e-02  7.9888047418705824e-02 1.3153801347845292e-02 3.9038779763482856e-02  9.6228250865168521e-02 1.3186191148645280e-02 3.9030926293637858e-02  1.1275702370637879e-01 1.3139847301597460e-02 3.8968977856131445e-02  1.2938855326532292e-01 1.3072752840425125e-02 3.8899852619262369e-02  1.4607618972969102e-01 1.3010529974073514e-02 3.8841816439813465e-02  1.6279500925974527e-01 1.2965938079923266e-02 3.8803061436225764e-02  1.7952733224986489e-01 1.2955505156495796e-02 3.8784306744919686e-02  0.0000000000000000e+00 0.0000000000000000e+00 0.0000000000000000e+00  1.0219669004704959e-02 2.3028843785338430e-03 2.5590001190650715e-02  2.0930651374822008e-02 4.1741749871925743e-03 3.4012869285064022e-02  3.3524958121828256e-02 5.4484456026920825e-03 3.7538332393076169e-02  4.7845303883910464e-02 6.1675301448817048e-03 3.8895789016645969e-02  6.3302724225121523e-02 6.5003474866590629e-03 3.9300452857385565e-02  7.9417671645729021e-02 6.6125996501627789e-03 3.9316835016627714e-02  9.5881786096665922e-02 6.6186083457033338e-03 3.9203248938305089e-02  1.1251685317051466e-01 6.5833801624012832e-03 3.9068850927744467e-02  1.2922789238031560e-01 6.5388520975840636e-03 3.8952725448031397e-02  1.4596858215971820e-01 6.4988194198861739e-03 3.8864521137269757e-02  1.6271840169805346e-01 6.4698160753182340e-03 3.8805492748840389e-02  1.7946657683077252e-01 6.4602993465663243e-03 3.8775541216402400e-02  0.0000000000000000e+00 0.0000000000000000e+00 0.0000000000000000e+00  1.0182402612885534e-02 3.9427482834697931e-05 2.5726630866061258e-02  2.0824322009892149e-02 5.1376524024362129e-05 3.4237742640052082e-02  3.3348344583305829e-02 4.7620261456745470e-05 3.7784243257849723e-02  4.7636305730583195e-02 3.6204445681748804e-05 3.9106174110428896e-02  6.3104064944879065e-02 2.1437979967984444e-05 3.9455870951580520e-02  7.9254219771240586e-02 6.9380978527384458e-06 3.9421121778589578e-02  9.5760122697889999e-02 -5.4627986830940410e-06 3.9268245606326295e-02  1.1243264181273104e-01 -1.5495607041744637e-05 3.9106614169997438e-02  1.2917244293793265e-01 -2.3557535456167752e-05 3.8972723801292103e-02  1.4593262846383406e-01 -3.0153412609669980e-05 3.8873186726270527e-02  1.6269384736239503e-01 -3.6144307482381928e-05 3.8806649868404187e-02  1.7944849989411160e-01 -4.3503012649621849e-05 3.8772558852711511e-02  0.0000000000000000e+00 0.0000000000000000e+00 0.0000000000000000e+00  1.0184072250602510e-02 -2.2136516348481529e-03 2.5592741772524297e-02  2.0921306892496338e-02 -4.0643330450127859e-03 3.4029449001475427e-02  3.3531166292934185e-02 -5.3510048383370173e-03 3.7568995240476778e-02  4.7850624507414591e-02 -6.0979174885354964e-03 3.8923498218459397e-02  6.3304525911824186e-02 -6.4621877744316554e-03 3.9319047679919665e-02  7.9418621160744482e-02 -6.6029517287807737e-03 3.9327590227613229e-02  9.5884284405742870e-02 -6.6324412692837795e-03 3.9208764686940720e-02  1.1252190812122521e-01 -6.6160583302557101e-03 3.9071202531080727e-02  1.2923550681947524e-01 -6.5868553847043404e-03 3.8953371112851569e-02  1.4597817252032294e-01 -6.5596317011347447e-03 3.8864573420489955e-02  1.6272888592481349e-01 -6.5423258645814072e-03 3.8805591644215529e-02  1.7947895473628653e-01 -6.5469382317538492e-03 3.8775641777381388e-02  0.0000000000000000e+00 0.0000000000000000e+00 0.0000000000000000e+00  1.0241209918924458e-02 -4.5689409831435020e-03 2.5181836662110563e-02  2.1258433091207528e-02 -8.3082932296882784e-03 3.3390048249758580e-02  3.4098198308001738e-02 -1.0817998286439650e-02 3.6909247748657323e-02  4.8490430188973921e-02 -1.2229980190413376e-02 3.8371856512888228e-02  6.3890400571824255e-02 -1.2901866724014898e-02 3.8914333852301634e-02  7.9891015171322674e-02 -1.3156432951219158e-02 3.9056394468361871e-02  9.6234838036314746e-02 -1.3207979065251924e-02 3.9039377458609484e-02  1.1276851354075067e-01 -1.3176926214643602e-02 3.8972132305133335e-02  1.2940465710923546e-01 -1.3122955887236278e-02 3.8900278618097528e-02  1.4609579180671103e-01 -1.3072559432799651e-02 3.8841388005962096e-02  1.6281619944530618e-01 -1.3038995661053862e-02 3.8802883468903072e-02  1.7955182461361718e-01 -1.3041035226182456e-02 3.8784282520343633e-02  0.0000000000000000e+00 0.0000000000000000e+00 0.0000000000000000e+00  1.0426042840325569e-02 -7.1705351341290391e-03 2.4474961862956328e-02  2.1949999213510110e-02 -1.2822618008310594e-02 3.2330292739042955e-02  3.5116161977757167e-02 -1.6400073883799739e-02 3.5865850484719998e-02  4.9552174829287171e-02 -1.8331451194101952e-02 3.7537108108059394e-02  6.4812505212039351e-02 -1.9239099691966285e-02 3.8324058858738450e-02  8.0607162529604051e-02 -1.9594554124716421e-02 3.8672216495316714e-02  9.6751639166900966e-02 -1.9684678651954026e-02 3.8804981779536708e-02  1.1312395090846283e-01 -1.9664393044424813e-02 3.8837829634170797e-02  1.2964349154808924e-01 -1.9610004232095198e-02 3.8829806585100199e-02  1.4625850409072449e-01 -1.9556123748180183e-02 3.8811441018203136e-02  1.6293508433392798e-01 -1.9519416336569215e-02 3.8800106315509994e-02  1.7965020487272246e-01 -1.9519943631480265e-02 3.8796869757679861e-02  0.0000000000000000e+00 0.0000000000000000e+00 0.0000000000000000e+00  1.0944913827811920e-02 -1.0270656833975659e-02 2.3457525466086992e-02  2.3217615912518173e-02 -1.7753752797695137e-02 3.0923049840831652e-02  3.6664368670277545e-02 -2.2083060591205031e-02 3.4600362780299716e-02  5.0985965725586870e-02 -2.4331649070866983e-02 3.6598734463769017e-02  6.5961105693094435e-02 -2.5407907415421354e-02 3.7697193801643360e-02  8.1450135315348254e-02 -2.5871266664681099e-02 3.8281096079203873e-02  9.7335294539198466e-02 -2.6034035146159488e-02 3.8574160525581526e-02  1.1351262481853018e-01 -2.6061908277040635e-02 3.8709397285335234e-02  1.2989757879987948e-01 -2.6038829912211965e-02 3.8764475657518345e-02  1.4642717954705273e-01 -2.6005551062089998e-02 3.8784846204479181e-02  1.6305594962227482e-01 -2.5982053697001645e-02 3.8798384957641388e-02  1.7974976862613282e-01 -2.5983144444986315e-02 3.8809675303121835e-02  0.0000000000000000e+00 0.0000000000000000e+00 0.0000000000000000e+00  1.2352869693154286e-02 -1.4440329474817715e-02 2.2225230690553498e-02  2.5378119749187033e-02 -2.3186746815730585e-02 2.9447976609951552e-02  3.8727369080802154e-02 -2.7750519417839167e-02 3.3473298062635458e-02  5.2618095155571684e-02 -3.0136132891304415e-02 3.5852705073354502e-02  6.7136581277200152e-02 -3.1368162522929781e-02 3.7235131959599779e-02  8.2249673638048498e-02 -3.1979965665814451e-02 3.8007994581559040e-02  9.7857710705306744e-02 -3.2263070611625887e-02 3.8419883063646194e-02  1.1384439039147932e-01 -3.2379277215399148e-02 3.8626949354210058e-02  1.3010552028097158e-01 -3.2417518308981368e-02 3.8724365341497924e-02  1.4655965560520234e-01 -3.2425985804280320e-02 3.8769460325946144e-02  1.6314743666982906e-01 -3.2430169077829078e-02 3.8797165651916536e-02  1.7982343177318411e-01 -3.2436049640984461e-02 3.8816103278047527e-02  0.0000000000000000e+00 0.0000000000000000e+00 0.0000000000000000e+00  1.5606200281606683e-02 -2.0844246304938117e-02 2.0941653210350335e-02  2.8509846248762644e-02 -2.8951919756651161e-02 2.8753449752239549e-02  4.0979112061138377e-02 -3.3230898568889868e-02 3.3052136280432694e-02  5.4095762869044460e-02 -3.5718520938343719e-02 3.5591784223770184e-02  6.8059584489102681e-02 -3.7164064347844104e-02 3.7078396774122641e-02  8.2806875535998775e-02 -3.7980162411014658e-02 3.7917771135684925e-02  9.8185099870814307e-02 -3.8423366446328155e-02 3.8370347866615140e-02  1.1403240956629847e-01 -3.8653949621995275e-02 3.8601288176103900e-02  1.3021194389096716e-01 -3.8770053488496201e-02 3.8712209343615751e-02  1.4662046204961637e-01 -3.8830642573090830e-02 3.8764602501895527e-02  1.6318365886678654e-01 -3.8869099229876365e-02 3.8794872929929593e-02  1.7984861915370387e-01 -3.8892810508212292e-02 3.8813985128561247e-02  0.0000000000000000e+00 0.0000000000000000e+00 0.0000000000000000e+00  1.2139314214394483e-02 2.1707064437796259e-02 1.4930498484512236e-02  2.5305503716463656e-02 2.9310271020899614e-02 2.3209232207798716e-02  3.8711598368478650e-02 3.3443524948659493e-02 2.7671032778933992e-02  5.2600285132701222e-02 3.5862225999382095e-02 3.0059988855646334e-02  6.7109948344309486e-02 3.7251392606907803e-02 3.1311552654060763e-02  8.2215887005158958e-02 3.8022137197730545e-02 3.1935539436805868e-02  9.7817906859738180e-02 3.8430780270751599e-02 3.2221847655999440e-02  1.1379934125214707e-01 3.8635121143124590e-02 3.2334781732069606e-02  1.3005615956343874e-01 3.8730426822257323e-02 3.2365679527553828e-02  1.4650718592141951e-01 3.8773885722203992e-02 3.2364418106700807e-02  1.6309324194451080e-01 3.8800430601352777e-02 3.2357189003164852e-02  1.7976915282214306e-01 3.8817245008427079e-02 3.2356873896428426e-02  0.0000000000000000e+00 0.0000000000000000e+00 0.0000000000000000e+00  8.1979834823961081e-03 1.4973760772761640e-02 1.4973760772755645e-02  2.2056241845869351e-02 2.3066627370721304e-02 2.3066627370707578e-02  3.6587381726124753e-02 2.7539534596871872e-02 2.7539534596848516e-02  5.1255809967373368e-02 2.9965934837705179e-02 2.9965934837674350e-02  6.6282975397534485e-02 3.1247348055100262e-02 3.1247348055062990e-02  8.1722746672326554e-02 3.1893346070754176e-02 3.1893346070716762e-02  9.7533212994578802e-02 3.2195205600676888e-02 3.2195205600633450e-02  1.1364063622307635e-01 3.2318682930376853e-02 3.2318682930329634e-02  1.2997082409405261e-01 3.2356438616515028e-02 3.2356438616462833e-02  1.4646239833612271e-01 3.2359507968057144e-02 3.2359507968005428e-02  1.6306920783553866e-01 3.2355662247649949e-02 3.2355662247600857e-02  1.7974890070469787e-01 3.2357710171916042e-02 3.2357710171866866e-02  0.0000000000000000e+00 0.0000000000000000e+00 0.0000000000000000e+00  6.9081719760852910e-03 1.0131027799105290e-02 1.6105498463627820e-02  1.9902971826718380e-02 1.7462084725968319e-02 2.4245349796788038e-02  3.4589631782762316e-02 2.1683111881767740e-02 2.8386304859235437e-02  4.9724353609915145e-02 2.3974799730932920e-02 3.0520486599574546e-02  6.5202015885878720e-02 2.5139364010356165e-02 3.1586270769920509e-02  8.0997559925753276e-02 2.5682351081162992e-02 3.2089459368518314e-02  9.7064988288091320e-02 2.5901088148565784e-02 3.2302718176423648e-02  1.1334724090207708e-01 2.5962574963641592e-02 3.2373668567817787e-02  1.2979013950121471e-01 2.5956404458322299e-02 3.2381122743259314e-02  1.4634982108463676e-01 2.5928779977889879e-02 3.2366874814581288e-02  1.6299349568295679e-01 2.5903918997474205e-02 3.2353769200695166e-02  1.7968849570506362e-01 2.5900554850216279e-02 3.2352358698347218e-02  0.0000000000000000e+00 0.0000000000000000e+00 0.0000000000000000e+00  6.2673168545991677e-03 6.9159767069640870e-03 1.7043900717545551e-02  1.8584716873635651e-02 1.2457099146124606e-02 2.5540446147469847e-02  3.3088410727753328e-02 1.5955936909486667e-02 2.9541995348654551e-02  4.8382459814944899e-02 1.7928083452966780e-02 3.1367995334928518e-02  6.4146758535509385e-02 1.8924208138381231e-02 3.2148393933473025e-02  8.0231607000719171e-02 1.9366536074732984e-02 3.2436908054209075e-02  9.6539047010151410e-02 1.9522751676635544e-02 3.2505134332140827e-02  1.1300002564923411e-01 1.9545595654229770e-02 3.2484229908482952e-02  1.2956571408117021e-01 1.9515762414156906e-02 3.2435664486641549e-02  1.4620298104934173e-01 1.9473389826721463e-02 3.2387714806773674e-02  1.6289007655631085e-01 1.9439456381339714e-02 3.2354805105929495e-02  1.7960671457372268e-01 1.9434193487232333e-02 3.2344733487095316e-02  0.0000000000000000e+00 0.0000000000000000e+00 0.0000000000000000e+00  5.9300070047004355e-03 4.3670368493238122e-03 1.7692464307699017e-02  1.7813285511974277e-02 8.0207784370651628e-03 2.6564743100903350e-02  3.2082283426826903e-02 1.0474549267889540e-02 3.0543010596775739e-02  4.7385842918323519e-02 1.1910349391542738e-02 3.2164518502339354e-02  6.3299822857595472e-02 1.2643273471230084e-02 3.2709966210822262e-02  7.9581003012975757e-02 1.2961580750116043e-02 3.2800910174687704e-02  9.6073208158100637e-02 1.3063579889101309e-02 3.2725583950803577e-02  1.1268239676242317e-01 1.3066378139462535e-02 3.2609027057313493e-02  1.2935487073801599e-01 1.3032065443723446e-02 3.2499923238091394e-02  1.4606171628215114e-01 1.2991047725458697e-02 3.2414486129096365e-02  1.6278868047111142e-01 1.2959185131536441e-02 3.2358898497763043e-02  1.7952661541533799e-01 1.2952985197164868e-02 3.2338911003964431e-02  0.0000000000000000e+00 0.0000000000000000e+00 0.0000000000000000e+00  5.7598850128669898e-03 2.1249211973396161e-03 1.8068294956699791e-02  1.7404529608033840e-02 3.9426725552401034e-03 2.7191625348921653e-02  3.1511459148200138e-02 5.1946295920395321e-03 3.1197426899012327e-02  4.6783833895661722e-02 5.9462604580069085e-03 3.2710017875673347e-02  6.2762377865958757e-02 6.3319391581671235e-03 3.3108845882953250e-02  7.9152455470416591e-02 6.4957160022349487e-03 3.3067137747896290e-02  9.5757960145733123e-02 6.5429830666062557e-03 3.2890778678857591e-02  1.1246332519229277e-01 6.5374790924108400e-03 3.2704596899227577e-02  1.2920756299820638e-01 6.5130641943436833e-03 3.2550335335124830e-02  1.4596221324019751e-01 6.4861268960199527e-03 3.2436435800721163e-02  1.6271699326866471e-01 6.4650273848152100e-03 3.2363369381840118e-02  1.7947033140183641e-01 6.4582599363458811e-03 3.2335823230759654e-02  0.0000000000000000e+00 0.0000000000000000e+00 0.0000000000000000e+00  5.6980078887501426e-03 9.2445875770296882e-06 1.8193583619412357e-02  1.7270985680598625e-02 3.2905246908287501e-05 2.7404529551274988e-02  3.1325730921369768e-02 2.4999244772571341e-05 3.1427650603465036e-02  4.6583674474510714e-02 1.8589176119305345e-05 3.2906385801073690e-02  6.2579784096531421e-02 8.9476924215925760e-06 3.3254455593480024e-02  7.9004490196804972e-02 -1.5884436280621167e-06 3.3165269122211093e-02  9.5648283838489750e-02 -1.1111114620904520e-05 3.2952098106222356e-02  1.1238735742586242e-01 -1.9107308001824690e-05 3.2740258155750428e-02  1.2915736216764315e-01 -2.5805312519169412e-05 3.2569261015642191e-02  1.4592947013746504e-01 -3.1597743561105417e-05 3.2444809474443774e-02  1.6269445680012667e-01 -3.7100172080407216e-05 3.2365199994750425e-02  1.7945348238779171e-01 -4.4103650418950220e-05 3.2334887573728141e-02  0.0000000000000000e+00 0.0000000000000000e+00 0.0000000000000000e+00  5.7252614574690233e-03 -2.1049589920960812e-03 1.8076291134570283e-02  1.7388623642450928e-02 -3.8721202733212516e-03 2.7206292287717999e-02  3.1507637132838544e-02 -5.1425222546748082e-03 3.1215581433742284e-02  4.6784876342614107e-02 -5.9109140235797499e-03 3.2723970757565266e-02  6.2764858866486029e-02 -6.3172845752404077e-03 3.3117074397948421e-02  7.9155815480791925e-02 -6.5016052686341173e-03 3.3071197944514713e-02  9.5762829271020741e-02 -6.5668115923585594e-03 3.2892350977677509e-02  1.1247012349849629e-01 -6.5763755874630537e-03 3.2704873091643605e-02  1.2921625791982994e-01 -6.5648238945154071e-03 3.2550112737553566e-02  1.4597247847668199e-01 -6.5492786412487264e-03 3.2436185715798274e-02  1.6272809113644968e-01 -6.5390729968840561e-03 3.2363055542124958e-02  1.7948168131325012e-01 -6.5458270662554115e-03 3.2335637525328628e-02  0.0000000000000000e+00 0.0000000000000000e+00 0.0000000000000000e+00  5.8547773510022093e-03 -4.3404297088917264e-03 1.7708783718901902e-02  1.7787694341020462e-02 -7.9329853300366803e-03 2.6601083512955523e-02  3.2077166240009877e-02 -1.0417866635562044e-02 3.0579806867802747e-02  4.7389348962737457e-02 -1.1881635745602507e-02 3.2188703954422478e-02  6.3306015149800193e-02 -1.2637902245365110e-02 3.2722934271542749e-02  7.9589129667818823e-02 -1.2974506943959871e-02 3.2806755662660274e-02  9.6084338630020541e-02 -1.3091219751998229e-02 3.2727399145392577e-02  1.1269708070196799e-01 -1.3106656312708662e-02 3.2608819914437939e-02  1.2937290715282437e-01 -1.3083909449378569e-02 