<?xml version="1.0"?>
<VTKFile type="UnstructuredGrid"  version="0.1"  >
<UnstructuredGrid>
<Piece  NumberOfPoints="2197" NumberOfCells="10368">
<Points>
<DataArray  type="Float64"  NumberOfComponents="3"  format="ascii">0 0 0  0.08333333333333333 0 0  0.1666666666666667 0 0  0.25 0 0  0.3333333333333333 0 0  0.4166666666666667 0 0  0.5 0 0  0.5833333333333334 0 0  0.6666666666666666 0 0  0.75 0 0  0.8333333333333334 0 0  0.9166666666666666 0 0  1 0 0  0 0.08333333333333333 0  0.08333333333333333 0.08333333333333333 0  0.1666666666666667 0.08333333333333333 0  0.25 0.08333333333333333 0  0.3333333333333333 0.08333333333333333 0  0.4166666666666667 0.08333333333333333 0  0.5 0.08333333333333333 0  0.5833333333333334 0.08333333333333333 0  0.6666666666666666 0.08333333333333333 0  0.75 0.08333333333333333 0  0.8333333333333334 0.08333333333333333 0  0.9166666666666666 0.08333333333333333 0  1 0.08333333333333333 0  0 0.1666666666666667 0  0.08333333333333333 0.1666666666666667 0  0.1666666666666667 0.1666666666666667 0  0.25 0.1666666666666667 0  0.3333333333333333 0.1666666666666667 0  0.4166666666666667 0.1666666666666667 0  0.5 0.1666666666666667 0  0.5833333333333334 0.1666666666666667 0  0.6666666666666666 0.1666666666666667 0  0.75 0.1666666666666667 0  0.8333333333333334 0.1666666666666667 0  0.9166666666666666 0.1666666666666667 0  1 0.1666666666666667 0  0 0.25 0  0.08333333333333333 0.25 0  0.1666666666666667 0.25 0  0.25 0.25 0  0.3333333333333333 0.25 0  0.4166666666666667 0.25 0  0.5 0.25 0  0.5833333333333334 0.25 0  0.6666666666666666 0.25 0  0.75 0.25 0  0.8333333333333334 0.25 0  0.9166666666666666 0.25 0  1 0.25 0  0 0.3333333333333333 0  0.08333333333333333 0.3333333333333333 0  0.1666666666666667 0.3333333333333333 0  0.25 0.3333333333333333 0  0.3333333333333333 0.3333333333333333 0  0.4166666666666667 0.3333333333333333 0  0.5 0.3333333333333333 0  0.5833333333333334 0.3333333333333333 0  0.6666666666666666 0.3333333333333333 0  0.75 0.3333333333333333 0  0.8333333333333334 0.3333333333333333 0  0.9166666666666666 0.3333333333333333 0  1 0.3333333333333333 0  0 0.4166666666666667 0  0.08333333333333333 0.4166666666666667 0  0.1666666666666667 0.4166666666666667 0  0.25 0.4166666666666667 0  0.3333333333333333 0.4166666666666667 0  0.4166666666666667 0.4166666666666667 0  0.5 0.4166666666666667 0  0.5833333333333334 0.4166666666666667 0  0.6666666666666666 0.4166666666666667 0  0.75 0.4166666666666667 0  0.8333333333333334 0.4166666666666667 0  0.9166666666666666 0.4166666666666667 0  1 0.4166666666666667 0  0 0.5 0  0.08333333333333333 0.5 0  0.1666666666666667 0.5 0  0.25 0.5 0  0.3333333333333333 0.5 0  0.4166666666666667 0.5 0  0.5 0.5 0  0.5833333333333334 0.5 0  0.6666666666666666 0.5 0  0.75 0.5 0  0.8333333333333334 0.5 0  0.9166666666666666 0.5 0  1 0.5 0  0 0.5833333333333334 0  0.08333333333333333 0.5833333333333334 0  0.1666666666666667 0.5833333333333334 0  0.25 0.5833333333333334 0  0.3333333333333333 0.5833333333333334 0  0.4166666666666667 0.5833333333333334 0  0.5 0.5833333333333334 0  0.5833333333333334 0.5833333333333334 0  0.6666666666666666 0.5833333333333334 0  0.75 0.5833333333333334 0  0.8333333333333334 0.5833333333333334 0  0.9166666666666666 0.5833333333333334 0  1 0.5833333333333334 0  0 0.6666666666666666 0  0.08333333333333333 0.6666666666666666 0  0.1666666666666667 0.6666666666666666 0  0.25 0.6666666666666666 0  0.3333333333333333 0.6666666666666666 0  0.4166666666666667 0.6666666666666666 0  0.5 0.6666666666666666 0  0.5833333333333334 0.6666666666666666 0  0.6666666666666666 0.6666666666666666 0  0.75 0.6666666666666666 0  0.8333333333333334 0.6666666666666666 0  0.9166666666666666 0.6666666666666666 0  1 0.6666666666666666 0  0 0.75 0  0.08333333333333333 0.75 0  0.1666666666666667 0.75 0  0.25 0.75 0  0.3333333333333333 0.75 0  0.4166666666666667 0.75 0  0.5 0.75 0  0.5833333333333334 0.75 0  0.6666666666666666 0.75 0  0.75 0.75 0  0.8333333333333334 0.75 0  0.9166666666666666 0.75 0  1 0.75 0  0 0.8333333333333334 0  0.08333333333333333 0.8333333333333334 0  0.1666666666666667 0.8333333333333334 0  0.25 0.8333333333333334 0  0.3333333333333333 0.8333333333333334 0  0.4166666666666667 0.8333333333333334 0  0.5 0.8333333333333334 0  0.5833333333333334 0.8333333333333334 0  0.6666666666666666 0.8333333333333334 0  0.75 0.8333333333333334 0  0.8333333333333334 0.8333333333333334 0  0.9166666666666666 0.8333333333333334 0  1 0.8333333333333334 0  0 0.9166666666666666 0  0.08333333333333333 0.9166666666666666 0  0.1666666666666667 0.9166666666666666 0  0.25 0.9166666666666666 0  0.3333333333333333 0.9166666666666666 0  0.4166666666666667 0.9166666666666666 0  0.5 0.9166666666666666 0  0.5833333333333334 0.9166666666666666 0  0.6666666666666666 0.9166666666666666 0  0.75 0.9166666666666666 0  0.8333333333333334 0.9166666666666666 0  0.9166666666666666 0.9166666666666666 0  1 0.9166666666666666 0  0 1 0  0.08333333333333333 1 0  0.1666666666666667 1 0  0.25 1 0  0.3333333333333333 1 0  0.4166666666666667 1 0  0.5 1 0  0.5833333333333334 1 0  0.6666666666666666 1 0  0.75 1 0  0.8333333333333334 1 0  0.9166666666666666 1 0  1 1 0  0 0 0.08333333333333333  0.08333333333333333 0 0.08333333333333333  0.1666666666666667 0 0.08333333333333333  0.25 0 0.08333333333333333  0.3333333333333333 0 0.08333333333333333  0.4166666666666667 0 0.08333333333333333  0.5 0 0.08333333333333333  0.5833333333333334 0 0.08333333333333333  0.6666666666666666 0 0.08333333333333333  0.75 0 0.08333333333333333  0.8333333333333334 0 0.08333333333333333  0.9166666666666666 0 0.08333333333333333  1 0 0.08333333333333333  0 0.08333333333333333 0.08333333333333333  0.08333333333333333 0.08333333333333333 0.08333333333333333  0.1666666666666667 0.08333333333333333 0.08333333333333333  0.25 0.08333333333333333 0.08333333333333333  0.3333333333333333 0.08333333333333333 0.08333333333333333  0.4166666666666667 0.08333333333333333 0.08333333333333333  0.5 0.08333333333333333 0.08333333333333333  0.5833333333333334 0.08333333333333333 0.08333333333333333  0.6666666666666666 0.08333333333333333 0.08333333333333333  0.75 0.08333333333333333 0.08333333333333333  0.8333333333333334 0.08333333333333333 0.08333333333333333  0.9166666666666666 0.08333333333333333 0.08333333333333333  1 0.08333333333333333 0.08333333333333333  0 0.1666666666666667 0.08333333333333333  0.08333333333333333 0.1666666666666667 0.08333333333333333  0.1666666666666667 0.1666666666666667 0.08333333333333333  0.25 0.1666666666666667 0.08333333333333333  0.3333333333333333 0.1666666666666667 0.08333333333333333  0.4166666666666667 0.1666666666666667 0.08333333333333333  0.5 0.1666666666666667 0.08333333333333333  0.5833333333333334 0.1666666666666667 0.08333333333333333  0.6666666666666666 0.1666666666666667 0.08333333333333333  0.75 0.1666666666666667 0.08333333333333333  0.8333333333333334 0.1666666666666667 0.08333333333333333  0.9166666666666666 0.1666666666666667 0.08333333333333333  1 0.1666666666666667 0.08333333333333333  0 0.25 0.08333333333333333  0.08333333333333333 0.25 0.08333333333333333  0.1666666666666667 0.25 0.08333333333333333  0.25 0.25 0.08333333333333333  0.3333333333333333 0.25 0.08333333333333333  0.4166666666666667 0.25 0.08333333333333333  0.5 0.25 0.08333333333333333  0.5833333333333334 0.25 0.08333333333333333  0.6666666666666666 0.25 0.08333333333333333  0.75 0.25 0.08333333333333333  0.8333333333333334 0.25 0.08333333333333333  0.9166666666666666 0.25 0.08333333333333333  1 0.25 0.08333333333333333  0 0.3333333333333333 0.08333333333333333  0.08333333333333333 0.3333333333333333 0.08333333333333333  0.1666666666666667 0.3333333333333333 0.08333333333333333  0.25 0.3333333333333333 0.08333333333333333  0.3333333333333333 0.3333333333333333 0.08333333333333333  0.4166666666666667 0.3333333333333333 0.08333333333333333  0.5 0.3333333333333333 0.08333333333333333  0.5833333333333334 0.3333333333333333 0.08333333333333333  0.6666666666666666 0.3333333333333333 0.08333333333333333  0.75 0.3333333333333333 0.08333333333333333  0.8333333333333334 0.3333333333333333 0.08333333333333333  0.9166666666666666 0.3333333333333333 0.08333333333333333  1 0.3333333333333333 0.08333333333333333  0 0.4166666666666667 0.08333333333333333  0.08333333333333333 0.4166666666666667 0.08333333333333333  0.1666666666666667 0.4166666666666667 0.08333333333333333  0.25 0.4166666666666667 0.08333333333333333  0.3333333333333333 0.4166666666666667 0.08333333333333333  0.4166666666666667 0.4166666666666667 0.08333333333333333  0.5 0.4166666666666667 0.08333333333333333  0.5833333333333334 0.4166666666666667 0.08333333333333333  0.6666666666666666 0.4166666666666667 0.08333333333333333  0.75 0.4166666666666667 0.08333333333333333  0.8333333333333334 0.4166666666666667 0.08333333333333333  0.9166666666666666 0.4166666666666667 0.08333333333333333  1 0.4166666666666667 0.08333333333333333  0 0.5 0.08333333333333333  0.08333333333333333 0.5 0.08333333333333333  0.1666666666666667 0.5 0.08333333333333333  0.25 0.5 0.08333333333333333  0.3333333333333333 0.5 0.08333333333333333  0.4166666666666667 0.5 0.08333333333333333  0.5 0.5 0.08333333333333333  0.5833333333333334 0.5 0.08333333333333333  0.6666666666666666 0.5 0.08333333333333333  0.75 0.5 0.08333333333333333  0.8333333333333334 0.5 0.08333333333333333  0.9166666666666666 0.5 0.08333333333333333  1 0.5 0.08333333333333333  0 0.5833333333333334 0.08333333333333333  0.08333333333333333 0.5833333333333334 0.08333333333333333  0.1666666666666667 0.5833333333333334 0.08333333333333333  0.25 0.5833333333333334 0.08333333333333333  0.3333333333333333 0.5833333333333334 0.08333333333333333  0.4166666666666667 0.5833333333333334 0.08333333333333333  0.5 0.5833333333333334 0.08333333333333333  0.5833333333333334 0.5833333333333334 0.08333333333333333  0.6666666666666666 0.5833333333333334 0.08333333333333333  0.75 0.5833333333333334 0.08333333333333333  0.8333333333333334 0.5833333333333334 0.083
[...]
<PointData  Vectors="f_9"> 
<DataArray  type="Float64"  Name="f_9"  NumberOfComponents="3" format="ascii">0.0000000000000000e+00 0.0000000000000000e+00 0.0000000000000000e+00  1.7944720239142103e-02 2.0473728043017309e-02 2.0473728043017302e-02  2.8824872823400478e-02 2.7785488915085400e-02 2.7785488915085407e-02  3.9229070611548775e-02 3.2053454723160769e-02 3.2053454723160769e-02  5.0185096040567923e-02 3.4635214530869658e-02 3.4635214530869637e-02  6.1885031392996115e-02 3.6193670061423398e-02 3.6193670061423405e-02  7.4303010588413834e-02 3.7113687696680109e-02 3.7113687696680137e-02  8.7335333478777505e-02 3.7641846385238112e-02 3.7641846385238077e-02  1.0085951778635309e-01 3.7939848486105196e-02 3.7939848486105161e-02  1.1476126734086090e-01 3.8114588574647890e-02 3.8114588574647820e-02  1.2894219534859644e-01 3.8237934469394663e-02 3.8237934469394615e-02  1.4331596655737130e-01 3.8355807674717343e-02 3.8355807674717315e-02  1.5781336180445946e-01 3.8477834838528922e-02 3.8477834838528853e-02  0.0000000000000000e+00 0.0000000000000000e+00 0.0000000000000000e+00  1.2717502523303786e-02 1.4124165022323162e-02 2.0941712845676315e-02  2.4603620714075961e-02 2.2307880641255360e-02 2.8395978156697164e-02  3.6319008188643552e-02 2.6825533065191177e-02 3.2427510622222204e-02  4.8249819925673565e-02 2.9327647396032452e-02 3.4871293235477385e-02  6.0625764889814748e-02 3.0693690611400273e-02 3.6342756048222624e-02  7.3497879528426596e-02 3.1406667249748922e-02 3.7205360528745242e-02  8.6825318102955934e-02 3.1751831855964231e-02 3.7695500390033360e-02  1.0053266934130517e-01 3.1901805208715543e-02 3.7968398559556658e-02  1.1453988064042477e-01 3.1962458958685547e-02 3.8126374990123370e-02  1.2877444299124385e-01 3.2000545009190813e-02 3.8238597009141055e-02  1.4317186762561390e-01 3.2059469655422439e-02 3.8352170874033448e-02  1.5766918346892042e-01 3.2171766136656933e-02 3.8477986924709585e-02  0.0000000000000000e+00 0.0000000000000000e+00 0.0000000000000000e+00  1.1554515810171194e-02 9.8711228596434341e-03 2.2229652493847295e-02  2.2312940216443738e-02 1.7064546887844208e-02 2.9674393776221848e-02  3.3990939932891186e-02 2.1376460108156730e-02 3.3458275001466191e-02  4.6332391176520278e-02 2.3745027156956824e-02 3.5600004087442697e-02  5.9178085608054994e-02 2.4960260323178839e-02 3.6830508963914994e-02  7.2452564390594665e-02 2.5523756041096139e-02 3.7518630350607755e-02  8.6088145025701862e-02 2.5737860847041914e-02 3.7886972962979590e-02  1.0001490395539780e-01 2.5781046563276233e-02 3.8076456876762907e-02  1.1416814517346137e-01 2.5757701411331664e-02 3.8177484612694768e-02  1.2849265993602563e-01 2.5730540357636795e-02 3.8250286291018211e-02  1.4293962286494785e-01 2.5743757121240250e-02 3.8335495114288611e-02  1.5745812771412232e-01 2.5851167543173671e-02 3.8438346238049925e-02  0.0000000000000000e+00 0.0000000000000000e+00 0.0000000000000000e+00  1.1136832157336048e-02 6.8495343557038266e-03 2.3034065492925158e-02  2.1111838981209569e-02 1.2282932649985029e-02 3.0901559028076130e-02  3.2382672299891967e-02 1.5864762557654219e-02 3.4623924520057761e-02  4.4748336587885962e-02 1.7917491120621486e-02 3.6519178623056051e-02  5.7830733370239487e-02 1.8960350870420362e-02 3.7489656627556676e-02  7.1394173356089274e-02 1.9411285691200934e-02 3.7962014807331711e-02  8.5292919209048565e-02 1.9546705259772541e-02 3.8168170434370957e-02  9.9428569413148468e-02 1.9533670212375738e-02 3.8241287666784647e-02  1.1373230177440573e-01 1.9468678334185720e-02 3.8259876952255419e-02  1.2815536542647707e-01 1.9408601823866119e-02 3.8272690876947374e-02  1.4265942820695710e-01 1.9396164811504343e-02 3.8310583957514147e-02  1.5720729580786114e-01 1.9492724361592068e-02 3.8373108935065410e-02  0.0000000000000000e+00 0.0000000000000000e+00 0.0000000000000000e+00  1.0972116951778929e-02 4.3731860789213090e-03 2.3565613023792554e-02  2.0496323606859188e-02 7.9694423735120219e-03 3.1790930464833389e-02  3.1388594110419082e-02 1.0486330920216847e-02 3.5564145792023626e-02  4.3630189017537901e-02 1.1992770913053038e-02 3.7323947938390931e-02  5.6787349760634431e-02 1.2770692918138295e-02 3.8102045047785471e-02  7.0519203565111571e-02 1.3100031329491670e-02 3.8392115330961013e-02  8.4603644468777203e-02 1.3185619013791479e-02 3.8450087513554179e-02  9.8902127296025988e-02 1.3157086298588395e-02 3.8411376640784679e-02  1.1333043918050451e-01 1.3090305670309676e-02 3.8347773020185404e-02  1.2783821867267031e-01 1.3030051177150479e-02 3.8298754427431740e-02  1.4239311407789507e-01 1.3010932584031670e-02 3.8286471822641520e-02  1.5697103837385495e-01 1.3085086470032896e-02 3.8307059543561860e-02  0.0000000000000000e+00 0.0000000000000000e+00 0.0000000000000000e+00  1.0904030819741794e-02 2.1659302275590831e-03 2.3873120165166333e-02  2.0195926541759938e-02 3.9674064858422880e-03 3.2317284962878570e-02  3.0853054049714813e-02 5.2642259700974624e-03 3.6156583048707350e-02  4.2976650893694783e-02 6.0622599060821142e-03 3.7857353833132469e-02  5.6138761410972932e-02 6.4808045774739946e-03 3.8523532148706290e-02  6.9949950156775104e-02 6.6573499928825183e-03 3.8696754202224390e-02  8.4139767268144483e-02 6.7001956242912324e-03 3.8654348913389966e-02  9.8538635419520848e-02 6.6804078595458088e-03 3.8537015728470216e-02  1.1304739300207864e-01 6.6401907826111814e-03 3.8414020291896611e-02  1.2761140764343115e-01 6.6045210792934732e-03 3.8319350946055486e-02  1.4220098504718529e-01 6.5924983923961273e-03 3.8269526104478736e-02  1.5680170459555101e-01 6.6329749733803163e-03 3.8259187139479650e-02  0.0000000000000000e+00 0.0000000000000000e+00 0.0000000000000000e+00  1.0874674711432381e-02 7.8135195398768072e-05 2.3976828059853319e-02  2.0097110901622507e-02 1.1861705268894020e-04 3.2496581538619521e-02  3.0680032396602580e-02 1.3909123457604225e-04 3.6366020613170326e-02  4.2758744263923808e-02 1.4878298621870151e-04 3.8051579216684644e-02  5.5914632290088168e-02 1.5170100620178555e-04 3.8679920682706551e-02  6.9747029915900219e-02 1.5121575447052553e-04 3.8811261325325017e-02  8.3970068504134437e-02 1.4997104611375145e-04 3.8731889505431279e-02  9.8402715597865009e-02 1.4940540157845237e-04 3.8585100253645123e-02  1.1293954178570463e-01 1.5009893335541787e-04 3.8439590116807795e-02  1.2752356919938540e-01 1.5212347363004487e-04 3.8327483795683397e-02  1.4212567730955677e-01 1.5449644806689623e-04 3.8263177052085651e-02  1.5673600078600816e-01 1.5493961778203228e-04 3.8240908587646526e-02  0.0000000000000000e+00 0.0000000000000000e+00 0.0000000000000000e+00  1.0866804948130207e-02 -1.9982674700757693e-03 2.3883724654444414e-02  2.0170267609750082e-02 -3.7197284838722459e-03 3.2338128538774165e-02  3.0839935531746829e-02 -4.9790357680917652e-03 3.6188338278924620e-02  4.2963117202388379e-02 -5.7625979224895964e-03 3.7888746390802065e-02  5.6120272635278780e-02 -6.1788013118844100e-03 3.8548231792198941e-02  6.9927870393903829e-02 -6.3577049584651740e-03 3.8714090234794829e-02  8.4116717378590930e-02 -6.4030456645312039e-03 3.8665605815542008e-02  9.8516487995453650e-02 -6.3838483145322545e-03 3.8543700153923395e-02  1.1302692992775151e-01 -6.3416885166810563e-03 3.8417418548233516e-02  1.2759245176347769e-01 -6.3015643642130217e-03 3.8320406099294956e-02  1.4218294557059924e-01 -6.2841925269475343e-03 3.8268495652815517e-02  1.5678728864031663e-01 -6.3227237785114737e-03 3.8256183284233858e-02  0.0000000000000000e+00 0.0000000000000000e+00 0.0000000000000000e+00  1.0892948329465024e-02 -4.1676940853686145e-03 2.3590612743367965e-02  2.0453345262786783e-02 -7.6884082073661623e-03 3.1841298427036334e-02  3.1366096664641657e-02 -1.0181929124952981e-02 3.5633359149634496e-02  4.3601607146000983e-02 -1.1689911612789931e-02 3.7386388257696065e-02  5.6748183478711849e-02 -1.2474999280403664e-02 3.8148534882371778e-02  7.0474230853048117e-02 -1.2809565797568557e-02 3.8423620464091347e-02  8.4558098450973826e-02 -1.2896834490372938e-02 3.8469989383739321e-02  9.8859108414932853e-02 -1.2866894577822363e-02 3.8422870579879302e-02  1.1329098350997392e-01 -1.2796396785544813e-02 3.8353377202790431e-02  1.2780183094640976e-01 -1.2730560391494112e-02 3.8300251032249939e-02  1.4235855326854352e-01 -1.2704540729118202e-02 3.8284418232981170e-02  1.5694289578349829e-01 -1.2773563941500189e-02 3.8301570095336926e-02  0.0000000000000000e+00 0.0000000000000000e+00 0.0000000000000000e+00  1.1020015714405975e-02 -6.5680489882319433e-03 2.3086136829285571e-02  2.1075233299492156e-02 -1.1941024899466711e-02 3.1005502318840712e-02  3.2354222671903479e-02 -1.5538175577857761e-02 3.4737406719537296e-02  4.4699222205879061e-02 -1.7620484361630977e-02 3.6607733556131811e-02  5.7766824823593715e-02 -1.8681365757034520e-02 3.7549928475505909e-02  7.1325880786850163e-02 -1.9137780533059950e-02 3.8000331868528504e-02  8.5226866224770798e-02 -1.9271103620976678e-02 3.8191111492137469e-02  9.9367550584132464e-02 -1.9252479538528829e-02 3.8253845035096483e-02  1.1367668839285316e-01 -1.9180690318535559e-02 3.8265484822342405e-02  1.2810416151063661e-01 -1.9113435603830563e-02 3.8273551763820787e-02  1.4261088701047395e-01 -1.9092430397236342e-02 3.8307478597907618e-02  1.5716631213312440e-01 -1.9178704265830536e-02 3.8366047228366264e-02  0.0000000000000000e+00 0.0000000000000000e+00 0.0000000000000000e+00  1.1473433917547767e-02 -9.4491083287780268e-03 2.2361567056525505e-02  2.2314353201197644e-02 -1.6645038800644028e-02 2.9866792293822414e-02  3.3944480577519205e-02 -2.1049873544516606e-02 3.3611836986676087e-02  4.6250869460473916e-02 -2.3478999670743100e-02 3.5696738108476608e-02  5.9086664779067620e-02 -2.4712661500166055e-02 3.6886871447797169e-02  7.2363685182927837e-02 -2.5273024700109815e-02 3.7550482846717782e-02  8.6006079224432458e-02 -2.5476599142176086e-02 3.7904378887329983e-02  9.9940300804586824e-02 -2.5508162522250910e-02 3.8085183840989578e-02  1.1410007279849731e-01 -2.5474308935768207e-02 3.8180692067179257e-02  1.2842955890522267e-01 -2.5438264156200339e-02 3.8249541610525399e-02  1.4287975621117510e-01 -2.5442363456465975e-02 3.8331302684973770e-02  1.5740457284288872e-01 -2.5533550534415861e-02 3.8430917814675600e-02  0.0000000000000000e+00 0.0000000000000000e+00 0.0000000000000000e+00  1.2948227811663536e-02 -1.3385592616472802e-02 2.1486580707337877e-02  2.4619277825421684e-02 -2.1910248915655395e-02 2.8614320959244977e-02  3.6207830044894029e-02 -2.6583886537469372e-02 3.2543114445953293e-02  4.8122405319835221e-02 -2.9122860878213384e-02 3.4920666414461468e-02  6.0509450260856378e-02 -3.0478559793442377e-02 3.6363444618957221e-02  7.3394628821890559e-02 -3.1170789949437006e-02 3.7214853304856542e-02  8.6733097179139684e-02 -3.1496581494610085e-02 3.7700233609041393e-02  1.0044932265636003e-01 -3.1630937661394076e-02 3.7970578124807003e-02  1.1446333619656324e-01 -3.1679265621809304e-02 3.8126615835558320e-02  1.2870267929835785e-01 -3.1707298911654157e-02 3.8236691682538945e-02  1.4310332715046492e-01 -3.1757512958195004e-02 3.8347663421235301e-02  1.5760238154640363e-01 -3.1851694468106088e-02 3.8472312234255977e-02  0.0000000000000000e+00 0.0000000000000000e+00 0.0000000000000000e+00  1.6828237781970925e-02 -1.9772566449854277e-02 2.0426466776372533e-02  2.8201692984322405e-02 -2.7601341382655985e-02 2.7958607565254100e-02  3.8852131388028524e-02 -3.1870225299576567e-02 3.2099038019338950e-02  4.9945886212788046e-02 -3.4421554814383748e-02 3.4624198038604170e-02  6.1716355676527848e-02 -3.5954276619708063e-02 3.6173405144915446e-02  7.4170893263639542e-02 -3.6855490633106926e-02 3.7098327690258857e-02  8.7224465766739923e-02 -3.7370015420877749e-02 3.7632534037898610e-02  1.0076242374818339e-01 -3.7657777538386068e-02 3.7934632772252841e-02  1.1467369320504946e-01 -3.7824345009719838e-02 3.8111205121557377e-02  1.2886204386799738e-01 -3.7940120617426902e-02 3.8234239544199349e-02  1.4324191568021469e-01 -3.8049557103879778e-02 3.8351336484617853e-02  1.5773099239342867e-01 -3.8164440241241451e-02 3.8478986410911013e-02  0.0000000000000000e+00 0.0000000000000000e+00 0.0000000000000000e+00  1.2717502523303783e-02 2.0941712845676315e-02 1.4124165022323157e-02  2.4603620714075961e-02 2.8395978156697154e-02 2.2307880641255367e-02  3.6319008188643559e-02 3.2427510622222218e-02 2.6825533065191181e-02  4.8249819925673551e-02 3.4871293235477385e-02 2.9327647396032462e-02  6.0625764889814741e-02 3.6342756048222631e-02 3.0693690611400277e-02  7.3497879528426582e-02 3.7205360528745263e-02 3.1406667249748929e-02  8.6825318102955962e-02 3.7695500390033360e-02 3.1751831855964231e-02  1.0053266934130517e-01 3.7968398559556651e-02 3.1901805208715522e-02  1.1453988064042479e-01 3.8126374990123411e-02 3.1962458958685540e-02  1.2877444299124383e-01 3.8238597009141062e-02 3.2000545009190792e-02  1.4317186762561390e-01 3.8352170874033462e-02 3.2059469655422390e-02  1.5766918346892050e-01 3.8477986924709641e-02 3.2171766136656885e-02  0.0000000000000000e+00 0.0000000000000000e+00 0.0000000000000000e+00  7.6793828562009194e-03 1.4194160658887366e-02 1.4194160658887367e-02  2.0571259564918065e-02 2.2214885383918338e-02 2.2214885383918345e-02  3.3648334578249707e-02 2.6723937715649508e-02 2.6723937715649508e-02  4.6501105428589096e-02 2.9249967048884995e-02 2.9249967048884985e-02  5.9494261501572963e-02 3.0636681560990899e-02 3.0636681560990899e-02  7.2777359722780183e-02 3.1366039743640300e-02 3.1366039743640294e-02  8.6370981503535393e-02 3.1724072832837416e-02 3.1724072832837409e-02  1.0024271343297746e-01 3.1884007382809429e-02 3.1884007382809429e-02  1.1434350863169661e-01 3.1952288030932585e-02 3.1952288030932557e-02  1.2862393643037631e-01 3.1996422160986547e-02 3.1996422160986540e-02  1.4303809425562486e-01 3.2060806591853210e-02 3.2060806591853196e-02  1.5753045803818932e-01 3.2171849027335525e-02 3.2171849027335504e-02  0.0000000000000000e+00 0.0000000000000000e+00 0.0000000000000000e+00  6.3444814062978755e-03 9.4787553641580320e-03 1.5092782529653933e-02  1.8193642796520824e-02 1.6691703287763933e-02 2.3257972802288484e-02  3.1340825811396245e-02 2.0995328618627285e-02 2.7550346466042180e-02  4.4655690672229027e-02 2.3429955655011343e-02 2.9842152371484822e-02  5.8125248186040250e-02 2.4725149514539819e-02 3.1031884497756190e-02  7.1800233191287810e-02 2.5359855134297449e-02 3.1616052908422079e-02  8.5687546818037225e-02 2.5630263205143018e-02 3.1873592261129742e-02  9.9765496998263217e-02 2.5715588496953198e-02 3.1966133271677674e-02  1.1400215611281669e-01 2.5723241445556769e-02 3.1989730560179543e-02  1.2836576012357140e-01 2.5719187752296362e-02 3.2004101452436422e-02  1.4282646004908447e-01 2.5749189165463687e-02 3.2047984636723204e-02  1.5734267499480906e-01 2.5857390186311759e-02 3.2141546488700642e-02  0.0000000000000000e+00 0.0000000000000000e+00 0.0000000000000000e+00  5.7393190511998314e-03 6.4621028379968116e-03 1.5800025585818726e-02  1.6885445623843861e-02 1.1842044557158869e-02 2.4344832413440307e-02  2.9748911339694015e-02 1.5401022961467052e-02 2.8607548970228096e-02  4.3146128138244741e-02 1.7514788192603284e-02 3.0683752522598078e-02  5.6863574185278494e-02 1.8648331526586275e-02 3.1638921413836528e-02  7.0818692645105194e-02 1.9187762704671589e-02 3.2024280632814241e-02  8.4954445819987526e-02 1.9397038188746243e-02 3.2131357320366719e-02  9.9227036674259014e-02 1.9441198011758521e-02 3.2116293330097863e-02  1.1360300557572189e-01 1.9419231975670064e-02 3.2064610255090033e-02  1.2805795819493729e-01 1.9391600349739056e-02 3.2025920279016844e-02  1.4257332535604103e-01 1.9402720391651980e-02 3.2031360085892295e-02  1.5712423417916077e-01 1.9503578996014879e-02 3.2097389530675223e-02  0.0000000000000000e+00 0.0000000000000000e+00 0.0000000000000000e+00  5.4390500083458986e-03 4.0860500195019980e-03 1.6291978573016151e-02  1.6159607052428526e-02 7.6184876561227882e-03 2.5178392039196751e-02  2.8739169707870500e-02 1.0102677909274395e-02 2.9489025917171643e-02  4.2077241642405602e-02 1.1645845065109644e-02 3.1443274398510322e-02  5.5890675707129127e-02 1.2492739377796666e-02 3.2219787027496977e-02  7.0011958401411778e-02 1.2895799844582076e-02 3.2433182458588207e-02  8.4322503751609976e-02 1.3046127426066600e-02 3.2399334269458742e-02  9.8745885511477838e-02 1.3069401427191492e-02 3.2277848813259687e-02  1.1323656140146028e-01 1.3042464735886824e-02 3.2148668000105796e-02  1.2776978411883544e-01 1.3012637463918035e-02 3.2053552300255535e-02  1.4233371346202781e-01 1.3015849395022573e-02 3.2017360164540293e-02  1.5691875118915974e-01 1.3095630324255520e-02 3.2055217644176216e-02  0.0000000000000000e+00 0.0000000000000000e+00 0.0000000000000000e+00  5.2911929956862549e-03 1.9979211179934307e-03 1.6578756619344860e-02  1.5783297617853301e-02 3.7694211257228933e-03 2.5682932807131572e-02  2.8181696050445713e-02 5.0433720517145519e-03 3.0053811614397082e-02  4.1447475060017287e-02 5.8594655408524500e-03 3.1951800607261945e-02  5.5285846503344213e-02 6.3154324442798032e-03 3.2622696323208064e-02  6.9488582073040928e-02 6.5337694643083817e-03 3.2724997468973775e-02  8.3898729796730659e-02 6.6144656759257667e-03 3.2595175344333024e-02  9.8414842020957197e-02 6.6256606265355797e-03 3.2398476294943780e-02  1.1297931886467409e-01 6.6096406393647538e-03 3.2212976941917652e-02  1.2756432087780659e-01 6.5925884664406091e-03 3.2075964135395499e-02  1.4216121766345555e-01 6.5944668472270275e-03 3.2008474827854343e-02  1.5677113675061907e-01 6.6394571030940338e-03 3.2025700644767403e-02  0.0000000000000000e+00 0.0000000000000000e+00 0.0000000000000000e+00  5.2361620498348783e-03 2.8565866783244316e-05 1.6675570116996736e-02  1.5656412927027540e-02 9.2954034817129951e-05 2.5854620790497392e-02  2.7996718789174990e-02 1.1342359761448099e-04 3.0251801580857926e-02  4.1234555358556503e-02 1.2897210731276052e-04 3.2134338138566761e-02  5.5075938153899280e-02 1.3674609557632299e-04 3.2769681805488851e-02  6.9302133249066242e-02 1.4004502066363656e-04 3.2832780337055112e-02  8.3744117593319803e-02 1.4182583633370354e-04 3.2668274747191181e-02  9.8291457742230234e-02 1.4368263138615011e-04 3.2443955052964234e-02  1.1288160681994190e-01 1.4624122104975562e-04 3.2237515269745089e-02  1.2748498500582120e-01 1.4960562154987711e-04 3.2084727643401152e-02  1.4209374386774440e-01 1.5325717979833013e-04 3.2005233964625214e-02  1.5671337980180267e-01 1.5548008528991648e-04 3.2014630396348887e-02  0.0000000000000000e+00 0.0000000000000000e+00 0.0000000000000000e+00  5.2545632841190593e-03 -1.9374293369081774e-03 1.6588157495182922e-02  1.5751445071964909e-02 -3.5759705778819887e-03 2.5698082884142406e-02  2.8159439006750480e-02 -4.8104150774747724e-03 3.0073434930448839e-02  4.1428702671329948e-02 -5.5995589954945767e-03 3.1969994963091275e-02  5.5266713046207928e-02 -6.0428636148993327e-03 3.2636508169209030e-02  6.9468385711509775e-02 -6.2555964451316629e-03 3.2734524526231060e-02  8.3878398537916746e-02 -6.3326099009086423e-03 3.2601367470029542e-02  9.8395386355151604e-02 -6.3396124340472995e-03 3.2402254758717025e-02  1.1296124275068964e-01 -6.3180594461166506e-03 3.2215029268603375e-02  1.2754754668829490e-01 -6.2940372713317285e-03 3.2076629732272849e-02  1.4214525544535916e-01 -6.2883206116665039e-03 3.2007625741952900e-02  1.5675716521485800e-01 -6.3282733439832487e-03 3.2023853921660760e-02  0.0000000000000000e+00 0.0000000000000000e+00 0.0000000000000000e+00  5.3561160354614109e-03 -4.0141697239577372e-03 1.6311409095079256e-02  1.6100158784994729e-02 -7.3986457562000450e-03 2.5215243351005570e-02  2.8697967872676318e-02 -9.8517888971905148e-03 2.9531360990152706e-02  4.2040522526132697e-02 -1.1381562125745096e-02 3.1478533794910134e-02  5.5852260348637182e-02 -1.2223592854174129e-02 3.2245141495175635e-02  6.9971725504469631e-02 -1.2623174773723492e-02 3.2450211177657881e-02  8.4282628652537397e-02 -1.2769084648893316e-02 3.2410202455663839e-02  9.8708131527316598e-02 -1.2786694336691485e-02 3.2284335753294112e-02  1.1320163115221339e-01 -1.2753074579825592e-02 3.2152045285037