<?xml version="1.0"?>
<VTKFile type="UnstructuredGrid"  version="0.1"  >
<UnstructuredGrid>
<Piece  NumberOfPoints="2197" NumberOfCells="10368">
<Points>
<DataArray  type="Float64"  NumberOfComponents="3"  format="ascii">0 0 0  0.08333333333333333 0 0  0.1666666666666667 0 0  0.25 0 0  0.3333333333333333 0 0  0.4166666666666667 0 0  0.5 0 0  0.5833333333333334 0 0  0.6666666666666666 0 0  0.75 0 0  0.8333333333333334 0 0  0.9166666666666666 0 0  1 0 0  0 0.08333333333333333 0  0.08333333333333333 0.08333333333333333 0  0.1666666666666667 0.08333333333333333 0  0.25 0.08333333333333333 0  0.3333333333333333 0.08333333333333333 0  0.4166666666666667 0.08333333333333333 0  0.5 0.08333333333333333 0  0.5833333333333334 0.08333333333333333 0  0.6666666666666666 0.08333333333333333 0  0.75 0.08333333333333333 0  0.8333333333333334 0.08333333333333333 0  0.9166666666666666 0.08333333333333333 0  1 0.08333333333333333 0  0 0.1666666666666667 0  0.08333333333333333 0.1666666666666667 0  0.1666666666666667 0.1666666666666667 0  0.25 0.1666666666666667 0  0.3333333333333333 0.1666666666666667 0  0.4166666666666667 0.1666666666666667 0  0.5 0.1666666666666667 0  0.5833333333333334 0.1666666666666667 0  0.6666666666666666 0.1666666666666667 0  0.75 0.1666666666666667 0  0.8333333333333334 0.1666666666666667 0  0.9166666666666666 0.1666666666666667 0  1 0.1666666666666667 0  0 0.25 0  0.08333333333333333 0.25 0  0.1666666666666667 0.25 0  0.25 0.25 0  0.3333333333333333 0.25 0  0.4166666666666667 0.25 0  0.5 0.25 0  0.5833333333333334 0.25 0  0.6666666666666666 0.25 0  0.75 0.25 0  0.8333333333333334 0.25 0  0.9166666666666666 0.25 0  1 0.25 0  0 0.3333333333333333 0  0.08333333333333333 0.3333333333333333 0  0.1666666666666667 0.3333333333333333 0  0.25 0.3333333333333333 0  0.3333333333333333 0.3333333333333333 0  0.4166666666666667 0.3333333333333333 0  0.5 0.3333333333333333 0  0.5833333333333334 0.3333333333333333 0  0.6666666666666666 0.3333333333333333 0  0.75 0.3333333333333333 0  0.8333333333333334 0.3333333333333333 0  0.9166666666666666 0.3333333333333333 0  1 0.3333333333333333 0  0 0.4166666666666667 0  0.08333333333333333 0.4166666666666667 0  0.1666666666666667 0.4166666666666667 0  0.25 0.4166666666666667 0  0.3333333333333333 0.4166666666666667 0  0.4166666666666667 0.4166666666666667 0  0.5 0.4166666666666667 0  0.5833333333333334 0.4166666666666667 0  0.6666666666666666 0.4166666666666667 0  0.75 0.4166666666666667 0  0.8333333333333334 0.4166666666666667 0  0.9166666666666666 0.4166666666666667 0  1 0.4166666666666667 0  0 0.5 0  0.08333333333333333 0.5 0  0.1666666666666667 0.5 0  0.25 0.5 0  0.3333333333333333 0.5 0  0.4166666666666667 0.5 0  0.5 0.5 0  0.5833333333333334 0.5 0  0.6666666666666666 0.5 0  0.75 0.5 0  0.8333333333333334 0.5 0  0.9166666666666666 0.5 0  1 0.5 0  0 0.5833333333333334 0  0.08333333333333333 0.5833333333333334 0  0.1666666666666667 0.5833333333333334 0  0.25 0.5833333333333334 0  0.3333333333333333 0.5833333333333334 0  0.4166666666666667 0.5833333333333334 0  0.5 0.5833333333333334 0  0.5833333333333334 0.5833333333333334 0  0.6666666666666666 0.5833333333333334 0  0.75 0.5833333333333334 0  0.8333333333333334 0.5833333333333334 0  0.9166666666666666 0.5833333333333334 0  1 0.5833333333333334 0  0 0.6666666666666666 0  0.08333333333333333 0.6666666666666666 0  0.1666666666666667 0.6666666666666666 0  0.25 0.6666666666666666 0  0.3333333333333333 0.6666666666666666 0  0.4166666666666667 0.6666666666666666 0  0.5 0.6666666666666666 0  0.5833333333333334 0.6666666666666666 0  0.6666666666666666 0.6666666666666666 0  0.75 0.6666666666666666 0  0.8333333333333334 0.6666666666666666 0  0.9166666666666666 0.6666666666666666 0  1 0.6666666666666666 0  0 0.75 0  0.08333333333333333 0.75 0  0.1666666666666667 0.75 0  0.25 0.75 0  0.3333333333333333 0.75 0  0.4166666666666667 0.75 0  0.5 0.75 0  0.5833333333333334 0.75 0  0.6666666666666666 0.75 0  0.75 0.75 0  0.8333333333333334 0.75 0  0.9166666666666666 0.75 0  1 0.75 0  0 0.8333333333333334 0  0.08333333333333333 0.8333333333333334 0  0.1666666666666667 0.8333333333333334 0  0.25 0.8333333333333334 0  0.3333333333333333 0.8333333333333334 0  0.4166666666666667 0.8333333333333334 0  0.5 0.8333333333333334 0  0.5833333333333334 0.8333333333333334 0  0.6666666666666666 0.8333333333333334 0  0.75 0.8333333333333334 0  0.8333333333333334 0.8333333333333334 0  0.9166666666666666 0.8333333333333334 0  1 0.8333333333333334 0  0 0.9166666666666666 0  0.08333333333333333 0.9166666666666666 0  0.1666666666666667 0.9166666666666666 0  0.25 0.9166666666666666 0  0.3333333333333333 0.9166666666666666 0  0.4166666666666667 0.9166666666666666 0  0.5 0.9166666666666666 0  0.5833333333333334 0.9166666666666666 0  0.6666666666666666 0.9166666666666666 0  0.75 0.9166666666666666 0  0.8333333333333334 0.9166666666666666 0  0.9166666666666666 0.9166666666666666 0  1 0.9166666666666666 0  0 1 0  0.08333333333333333 1 0  0.1666666666666667 1 0  0.25 1 0  0.3333333333333333 1 0  0.4166666666666667 1 0  0.5 1 0  0.5833333333333334 1 0  0.6666666666666666 1 0  0.75 1 0  0.8333333333333334 1 0  0.9166666666666666 1 0  1 1 0  0 0 0.08333333333333333  0.08333333333333333 0 0.08333333333333333  0.1666666666666667 0 0.08333333333333333  0.25 0 0.08333333333333333  0.3333333333333333 0 0.08333333333333333  0.4166666666666667 0 0.08333333333333333  0.5 0 0.08333333333333333  0.5833333333333334 0 0.08333333333333333  0.6666666666666666 0 0.08333333333333333  0.75 0 0.08333333333333333  0.8333333333333334 0 0.08333333333333333  0.9166666666666666 0 0.08333333333333333  1 0 0.08333333333333333  0 0.08333333333333333 0.08333333333333333  0.08333333333333333 0.08333333333333333 0.08333333333333333  0.1666666666666667 0.08333333333333333 0.08333333333333333  0.25 0.08333333333333333 0.08333333333333333  0.3333333333333333 0.08333333333333333 0.08333333333333333  0.4166666666666667 0.08333333333333333 0.08333333333333333  0.5 0.08333333333333333 0.08333333333333333  0.5833333333333334 0.08333333333333333 0.08333333333333333  0.6666666666666666 0.08333333333333333 0.08333333333333333  0.75 0.08333333333333333 0.08333333333333333  0.8333333333333334 0.08333333333333333 0.08333333333333333  0.9166666666666666 0.08333333333333333 0.08333333333333333  1 0.08333333333333333 0.08333333333333333  0 0.1666666666666667 0.08333333333333333  0.08333333333333333 0.1666666666666667 0.08333333333333333  0.1666666666666667 0.1666666666666667 0.08333333333333333  0.25 0.1666666666666667 0.08333333333333333  0.3333333333333333 0.1666666666666667 0.08333333333333333  0.4166666666666667 0.1666666666666667 0.08333333333333333  0.5 0.1666666666666667 0.08333333333333333  0.5833333333333334 0.1666666666666667 0.08333333333333333  0.6666666666666666 0.1666666666666667 0.08333333333333333  0.75 0.1666666666666667 0.08333333333333333  0.8333333333333334 0.1666666666666667 0.08333333333333333  0.9166666666666666 0.1666666666666667 0.08333333333333333  1 0.1666666666666667 0.08333333333333333  0 0.25 0.08333333333333333  0.08333333333333333 0.25 0.08333333333333333  0.1666666666666667 0.25 0.08333333333333333  0.25 0.25 0.08333333333333333  0.3333333333333333 0.25 0.08333333333333333  0.4166666666666667 0.25 0.08333333333333333  0.5 0.25 0.08333333333333333  0.5833333333333334 0.25 0.08333333333333333  0.6666666666666666 0.25 0.08333333333333333  0.75 0.25 0.08333333333333333  0.8333333333333334 0.25 0.08333333333333333  0.9166666666666666 0.25 0.08333333333333333  1 0.25 0.08333333333333333  0 0.3333333333333333 0.08333333333333333  0.08333333333333333 0.3333333333333333 0.08333333333333333  0.1666666666666667 0.3333333333333333 0.08333333333333333  0.25 0.3333333333333333 0.08333333333333333  0.3333333333333333 0.3333333333333333 0.08333333333333333  0.4166666666666667 0.3333333333333333 0.08333333333333333  0.5 0.3333333333333333 0.08333333333333333  0.5833333333333334 0.3333333333333333 0.08333333333333333  0.6666666666666666 0.3333333333333333 0.08333333333333333  0.75 0.3333333333333333 0.08333333333333333  0.8333333333333334 0.3333333333333333 0.08333333333333333  0.9166666666666666 0.3333333333333333 0.08333333333333333  1 0.3333333333333333 0.08333333333333333  0 0.4166666666666667 0.08333333333333333  0.08333333333333333 0.4166666666666667 0.08333333333333333  0.1666666666666667 0.4166666666666667 0.08333333333333333  0.25 0.4166666666666667 0.08333333333333333  0.3333333333333333 0.4166666666666667 0.08333333333333333  0.4166666666666667 0.4166666666666667 0.08333333333333333  0.5 0.4166666666666667 0.08333333333333333  0.5833333333333334 0.4166666666666667 0.08333333333333333  0.6666666666666666 0.4166666666666667 0.08333333333333333  0.75 0.4166666666666667 0.08333333333333333  0.8333333333333334 0.4166666666666667 0.08333333333333333  0.9166666666666666 0.4166666666666667 0.08333333333333333  1 0.4166666666666667 0.08333333333333333  0 0.5 0.08333333333333333  0.08333333333333333 0.5 0.08333333333333333  0.1666666666666667 0.5 0.08333333333333333  0.25 0.5 0.08333333333333333  0.3333333333333333 0.5 0.08333333333333333  0.4166666666666667 0.5 0.08333333333333333  0.5 0.5 0.08333333333333333  0.5833333333333334 0.5 0.08333333333333333  0.6666666666666666 0.5 0.08333333333333333  0.75 0.5 0.08333333333333333  0.8333333333333334 0.5 0.08333333333333333  0.9166666666666666 0.5 0.08333333333333333  1 0.5 0.08333333333333333  0 0.5833333333333334 0.08333333333333333  0.08333333333333333 0.5833333333333334 0.08333333333333333  0.1666666666666667 0.5833333333333334 0.08333333333333333  0.25 0.5833333333333334 0.08333333333333333  0.3333333333333333 0.5833333333333334 0.08333333333333333  0.4166666666666667 0.5833333333333334 0.08333333333333333  0.5 0.5833333333333334 0.08333333333333333  0.5833333333333334 0.5833333333333334 0.08333333333333333  0.6666666666666666 0.5833333333333334 0.08333333333333333  0.75 0.5833333333333334 0.08333333333333333  0.8333333333333334 0.5833333333333334 0.083
[...]
<PointData  Vectors="f_28"> 
<DataArray  type="Float64"  Name="f_28"  NumberOfComponents="3" format="ascii">4.3188841152319286e-04 4.4673947826160184e-03 4.4673947826166099e-03  2.9311547392912300e-02 3.3270031599803178e-02 3.3270031599809236e-02  4.6875798472496996e-02 4.4591040924895485e-02 4.4591040924906927e-02  6.2150039929460076e-02 5.1572230739051879e-02 5.1572230739054238e-02  7.7736982787382530e-02 5.5921126245476148e-02 5.5921126245463214e-02  9.4152119813173937e-02 5.8634793921253439e-02 5.8634793921241678e-02  1.1152936209915865e-01 6.0305199000805339e-02 6.0305199000808454e-02  1.2982999307683624e-01 6.1321163764498331e-02 6.1321163764505776e-02  1.4894087058334279e-01 6.1951135464188518e-02 6.1951135464185507e-02  1.6872429037721806e-01 6.2384786329742849e-02 6.2384786329731795e-02  1.8903164560322575e-01 6.2763613396535675e-02 6.2763613396512610e-02  2.0971765816821455e-01 6.3188816317322122e-02 6.3188816317285332e-02  2.3054549485526696e-01 6.3731256286973098e-02 6.3731256286932436e-02  -7.2906701251008121e-04 9.2939152734795557e-04 4.2257587807032759e-03  2.0382325803850170e-02 2.2550375475325391e-02 3.5287289154941802e-02  3.9256328439469704e-02 3.5891226308994870e-02 4.5762391953181047e-02  5.6724612693630008e-02 4.3404121486348278e-02 5.2327043389005082e-02  7.3967443711381572e-02 4.7660935096025939e-02 5.6396307947492036e-02  9.1560357782932103e-02 5.0059225282931608e-02 5.8935620344148558e-02  1.0976024824251239e-01 5.1358736588785515e-02 6.0491499877096046e-02  1.2861283072934007e-01 5.2019391676544971e-02 6.1429296712985117e-02  1.4806901167249337e-01 5.2338833131368452e-02 6.2004956098637327e-02  1.6804124472770463e-01 5.2516684537039289e-02 6.2400383521654418e-02  1.8842754677590495e-01 5.2697925299321512e-02 6.2753792799102245e-02  2.0911986294842352e-01 5.2990085693109854e-02 6.3169453012880503e-02  2.2995014132837605e-01 5.3512588556651343e-02 6.3696137364649463e-02  -3.2174268739462681e-04 8.5968501470247340e-04 4.1177354215370604e-03  1.8441214565929200e-02 1.5623632630007466e-02 3.6675785798302420e-02  3.5175793598989077e-02 2.7144872925600104e-02 4.7856311663365091e-02  5.2461912052905263e-02 3.4428115692636999e-02 5.4180699390183530e-02  7.0335449969509814e-02 3.8611329532565172e-02 5.7781360938032864e-02  8.8692167213118789e-02 4.0850810018530880e-02 5.9907687636549009e-02  1.0756878151238933e-01 4.1941275959161577e-02 6.1144255362451702e-02  1.2695468878522748e-01 4.2387672599655139e-02 6.1841958383514653e-02  1.4679812716038645e-01 4.2510623420728012e-02 6.2239261070042268e-02  1.6702865198560807e-01 4.2517686673707943e-02 6.2501849158148437e-02  1.8757070614701099e-01 4.2554198030612271e-02 6.2756101972818973e-02  2.0834322376392081e-01 4.2736845063893178e-02 6.3089635435780209e-02  2.2922383495551657e-01 4.3247987190978270e-02 6.3539063713989180e-02  -2.1599106246454684e-04 6.1338104350722265e-04 4.1546496387593768e-03  1.7885139458609776e-02 1.0864196559108513e-02 3.7598565520307742e-02  3.3208938694654640e-02 1.9443275902326862e-02 4.9564924043539578e-02  4.9673789597032843e-02 2.5438995422901012e-02 5.5979219149850712e-02  6.7460791615747223e-02 2.9095742670420716e-02 5.9325543077578924e-02  8.6118823207191081e-02 3.1082692869165398e-02 6.1097977179912791e-02  1.0542234952989846e-01 3.2017497119507431e-02 6.1995737702262806e-02  1.2522319614012822e-01 3.2351991928359199e-02 6.2407953913897862e-02  1.4540994151961334e-01 3.2386854671959286e-02 6.2577628424633533e-02  1.6589373520098991e-01 3.2318155056619328e-02 6.2661127079676276e-02  1.8660258542151334e-01 3.2281029358052764e-02 6.2770860432399891e-02  2.0746813864831248e-01 3.2397533550270044e-02 6.2973590270956323e-02  2.2841426401947557e-01 3.2865053237249801e-02 6.3296251947923432e-02  -1.5172363139506507e-04 4.7219430661534742e-04 4.1864442607827792e-03  1.7684817741382291e-02 7.0290204736802499e-03 3.8227084575948242e-02  3.2248708797759540e-02 1.2664980289483822e-02 5.0746307189843236e-02  4.8017595192258351e-02 1.6827473791296219e-02 5.7342740557197666e-02  6.5497305122991192e-02 1.9501044394895604e-02 6.0593132265800861e-02  8.4177758196808145e-02 2.1004465008334305e-02 6.2138019617276316e-02  1.0368559497914068e-01 2.1722077926335612e-02 6.2775744903910177e-02  1.2375008637858202e-01 2.1974469522624700e-02 6.2946136736422312e-02  1.4418562592146436e-01 2.1989746613401265e-02 6.2909961931270228e-02  1.6486738557364683e-01 2.1921678313726222e-02 6.2823215576957039e-02  1.8571226343490380e-01 2.1876414533424735e-02 6.2788764838301800e-02  2.0665830442175417e-01 2.1961249763517713e-02 6.2857261448919094e-02  2.2766696044605544e-01 2.2330109292489068e-02 6.3050843411636567e-02  -1.1959660176779190e-04 3.8346115904941858e-04 4.2174789100083883e-03  1.7608964531627545e-02 3.6307969529703892e-03 3.8602001614948915e-02  3.1790854622921264e-02 6.4503991602958980e-03 5.1435535874949923e-02  4.7139035170898805e-02 8.5795644576471090e-03 5.8174847742399768e-02  6.4363083929692241e-02 9.9909919651504191e-03 6.1401385386605951e-02  8.2982046072723761e-02 1.0810690888550509e-02 6.2825019484644085e-02  1.0256298671675733e-01 1.1217112421325422e-02 6.3305699560453038e-02  1.2276279137849014e-01 1.1372516670617913e-02 6.3320101230303225e-02  1.4334213068974783e-01 1.1397972714302167e-02 6.3145023465894526e-02  1.6414532418209604e-01 1.1377829645166034e-02 6.2939382009003036e-02  1.8507628687768635e-01 1.1369495298799100e-02 6.2801069216270794e-02  2.0607657319488609e-01 1.1440833826585244e-02 6.2772137122092828e-02  2.2712879624958329e-01 1.1658226744879497e-02 6.2872033407215699e-02  -1.1251475162415612e-04 3.2569770370264337e-04 4.2462615673422638e-03  1.7573538771657318e-02 4.3172932143565750e-04 3.8741220668445750e-02  3.1627879414516065e-02 5.0470457667614241e-04 5.1673886876453787e-02  4.6834450446819151e-02 5.3730460704995821e-04 5.8462284254959737e-02  6.3963194284709465e-02 5.6274213104991287e-04 6.1683293047275795e-02  8.2549381903890495e-02 5.9166129262025566e-04 6.3066537499215633e-02  1.0214587427021678e-01 6.2557721651167934e-04 6.3492957735247935e-02  1.2238638859221013e-01 6.6466354610949998e-04 6.3452488628224446e-02  1.4301232248505641e-01 7.0834886635795752e-04 6.3227886125886423e-02  1.6385631056232453e-01 7.5685380294457469e-04 6.2979409288609664e-02  1.8481656364991747e-01 8.0710131067403268e-04 6.2802916440448997e-02  2.0583739517955005e-01 8.7028433179813967e-04 6.2738759983454351e-02  2.2690338235082622e-01 9.0608172834843082e-04 6.2803611151960342e-02  -1.2762284813041931e-04 2.9342898752676613e-04 4.2746679793298830e-03  1.7556901677216786e-02 -2.7338063547790200e-03 3.8653173753860105e-02  3.1707286875513808e-02 -5.4201081722628306e-03 5.1476426051369421e-02  4.7043366068134168e-02 -7.4923666522214456e-03 5.8207592969000015e-02  6.4261477365993705e-02 -8.8570398656787844e-03 6.1423616490002823e-02  8.2877942816071262e-02 -9.6217961821300890e-03 6.2836622692780328e-02  1.0245912414927524e-01 -9.9625988175720895e-03 6.3309347023457252e-02  1.2266030197755909e-01 -1.0041425525172547e-02 6.3318755149145964e-02  1.4324083578991115e-01 -9.9805939786499192e-03 6.3140751208185922e-02  1.6404520135137071e-01 -9.8645423990468793e-03 6.2933549351902027e-02  1.8497643789942403e-01 -9.7560930960244249e-03 6.2793228714438112e-02  2.0598155131564763e-01 -9.7040409301042373e-03 6.2764550544851166e-02  2.2702797960016308e-01 -9.8465047544700653e-03 6.2861097269164321e-02  -1.8077427433307652e-04 3.0565084932169888e-04 4.3075879792722309e-03  1.7568209247327476e-02 -6.0300907625691746e-03 3.8335725855738322e-02  3.2081496779963171e-02 -1.1573736566370842e-02 5.0834561610668107e-02  4.7824984740045637e-02 -1.5702194257355639e-02 5.7412093675676575e-02  6.5291123091376621e-02 -1.8342419342103167e-02 6.0637514935138588e-02  8.3967829625039181e-02 -1.9800534404879604e-02 6.2159875700752064e-02  1.0347828577949711e-01 -2.0459307105670756e-02 6.2781881878832699e-02  1.2354680039813151e-01 -2.0639411022446198e-02 6.2942905191120987e-02  1.4398502876323988e-01 -2.0570986243214545e-02 6.2901458882033454e-02  1.6466864011488375e-01 -2.0409718839354586e-02 6.2811921953626546e-02  1.8551332807711798e-01 -2.0265181614919910e-02 6.2774083431950456e-02  2.0646790346453275e-01 -2.0235019795028578e-02 6.2843030948664363e-02  2.2746607987413700e-01 -2.0518617396812253e-02 6.3030894440764137e-02  -2.9644844830316384e-04 3.2492034599708854e-04 4.3381232932673923e-03  1.7725815860255196e-02 -9.7066356196137803e-03 3.7770845020898253e-02  3.2975023303199832e-02 -1.8245505391168093e-02 4.9720705281311887e-02  4.9380828955752472e-02 -2.4247262298979121e-02 5.6090303224547555e-02  6.7144142957833816e-02 -2.7899656290437100e-02 5.9389805614240780e-02  8.5802423545951079e-02 -2.9860437016125552e-02 6.1126338992903193e-02  1.0511510125942634e-01 -3.0746806654471232e-02 6.2001858347373082e-02  1.2492361990270674e-01 -3.1013617001127047e-02 6.2401758323559806e-02  1.4511338925271514e-01 -3.0966821374668236e-02 6.2565244326452302e-02  1.6559746301926478e-01 -3.0807684659418241e-02 6.2645733918454335e-02  1.8630420429887787e-01 -3.0672243043213955e-02 6.2752181971597765e-02  2.0717954956564169e-01 -3.0686128430735801e-02 6.2954515160590016e-02  2.2811322914209939e-01 -3.1050885798175748e-02 6.3270299433258043e-02  -4.4563593282673908e-04 4.6230741857376665e-04 4.4282466301328420e-03  1.8247951346811835e-02 -1.4144602755213679e-02 3.6968883823434814e-02  3.4812786226943532e-02 -2.5775994992264208e-02 4.8117376794753475e-02  5.2004503739528474e-02 -3.3158898094683892e-02 5.4348122509147417e-02  6.9885914360761026e-02 -3.7391329197429699e-02 5.7858066168040893e-02  8.8273395398293292e-02 -3.9628409016088627e-02 5.9933655578985959e-02  1.0717306943269952e-01 -4.0674494325135820e-02 6.1143150978680137e-02  1.2656819754814785e-01 -4.1051234839167533e-02 6.1828728375085358e-02  1.4641112766582895e-01 -4.1090680365601581e-02 6.2221693489489270e-02  1.6663726950131763e-01 -4.1007722751235112e-02 6.2482938633040788e-02  1.8717352603859633e-01 -4.0946161809585185e-02 6.2735598002158707e-02  2.0794930604697184e-01 -4.1038451483890549e-02 6.3066041452108326e-02  2.2881792865091924e-01 -4.1426685515974698e-02 6.3510617963800378e-02  -2.0577859811951788e-03 1.1786266025668212e-04 4.6160995374873422e-03  2.0128287242931649e-02 -2.0865386773343767e-02 3.5482223499451425e-02  3.8793376276331587e-02 -3.4413031030696713e-02 4.6127552575997592e-02  5.6208156455841450e-02 -4.2105243082691847e-02 5.2463419399725923e-02  7.3498755776373520e-02 -4.6448374137103871e-02 5.6431315587240585e-02  9.1117684797750370e-02 -4.8841797124442518e-02 5.8923971700705555e-02  1.0931570746899438e-01 -5.0086923827649427e-02 6.0469521250712470e-02  1.2815253203501251e-01 -5.0672434615420384e-02 6.1408768468106868e-02  1.4758952370644735e-01 -5.0907692973752680e-02 6.1988790774526230e-02  1.6754386328360754e-01 -5.0997319539954532e-02 6.2387975351845606e-02  1.8791498587709751e-01 -5.1084785888517614e-02 6.2742668509146587e-02  2.0859819882556055e-01 -5.1295189307131547e-02 6.3150164001842729e-02  2.2942689192695720e-01 -5.1689957291820604e-02 6.3673838905310434e-02  -8.6265354544112587e-04 -4.2197399945027945e-03 5.0526887412894904e-03  2.8722375363365766e-02 -3.0734968614069002e-02 3.6234787979570533e-02  4.6015528398965659e-02 -4.3195664033959975e-02 4.4928913837872432e-02  6.1490124196897616e-02 -5.0435772363883226e-02 5.1717585355738824e-02  7.7168305629911088e-02 -5.4807559837896591e-02 5.5904519470508646e-02  9.3587038528073582e-02 -5.7470359409667084e-02 5.8575015413878349e-02  1.1094130386457050e-01 -5.9059904842069307e-02 6.0250404525451037e-02  1.2921495670995847e-01 -5.9987022821693235e-02 6.1277523742378361e-02  1.4830360154465780e-01 -6.0525879861266382e-02 6.1918182230647864e-02  1.6807187697089568e-01 -6.0867667825459215e-02 6.2360280138055509e-02  1.8837726813210756e-01 -6.1151855042496817e-02 6.2743676553965261e-02  2.0905982351256600e-01 -6.1487121197664016e-02 6.3168263616288980e-02  2.2990374876342604e-01 -6.1910368853662939e-02 6.3705484701254630e-02  -7.2906701250994557e-04 4.2257587807032204e-03 9.2939152734836041e-04  2.0382325803849483e-02 3.5287289154940289e-02 2.2550375475330821e-02  3.9256328439470793e-02 4.5762391953178973e-02 3.5891226309005111e-02  5.6724612693634095e-02 5.2327043389002625e-02 4.3404121486354717e-02  7.3967443711387013e-02 5.6396307947501931e-02 4.7660935096018466e-02  9.1560357782934892e-02 5.8935620344164927e-02 5.0059225282924273e-02  1.0976024824250970e-01 6.0491499877099141e-02 5.1358736588788555e-02  1.2861283072934346e-01 6.1429296712985436e-02 5.2019391676549585e-02  1.4806901167250094e-01 6.2004956098645717e-02 5.2338833131367210e-02  1.6804124472771165e-01 6.2400383521678537e-02 5.2516684537028381e-02  1.8842754677591095e-01 6.2753792799135108e-02 5.2697925299300008e-02  2.0911986294842586e-01 6.3169453012918417e-02 5.2990085693074618e-02  2.2995014132837763e-01 6.3696137364688599e-02 5.3512588556607336e-02  -1.7600960093360849e-03 3.4966759946900721e-04 3.4966759946926179e-04  9.8832385202440240e-03 2.3025657588772688e-02 2.3025657588774191e-02  3.1400238593410998e-02 3.5988137801664669e-02 3.5988137801668672e-02  5.1474422790768942e-02 4.3476761490920453e-02 4.3476761490924429e-02  7.0402053712015605e-02 4.7637484716882596e-02 4.7637484716879015e-02  8.9146771650193579e-02 5.0014983464312296e-02 5.0014983464298793e-02  1.0813965725226037e-01 5.1312159578993294e-02 5.1312159578990706e-02  1.2751701457141404e-01 5.1979652355598392e-02 5.1979652355597566e-02  1.4729602007416520e-01 5.2309884531832454e-02 5.2309884531821588e-02  1.6744008952028444e-01 5.2500192839278509e-02 5.2500192839257422e-02  1.8789139701464727e-01 5.2694594424345612e-02 5.2694594424314109e-02  2.0857907942858489e-01 5.3002512185972232e-02 5.3002512185931480e-02  2.2939244245741158e-01 5.3502132939665964e-02 5.3502132939623415e-02  -1.2478802877413015e-03 7.3024240002741861e-04 4.1987220708372930e-04  8.0787096434439040e-03 1.5288634395583893e-02 2.4181483863931943e-02  2.7324924987572250e-02 2.6735757262315547e-02 3.7639872731013449e-02  4.7267245507310304e-02 3.3971120534573566e-02 4.5050382135190400e-02  6.6873576795953280e-02 3.8185331393781295e-02 4.8800907335714419e-02  8.6401202681675990e-02 4.0503846798485316e-02 5.0829542187681521e-02  1.0606727544486548e-01 4.1678552807544456e-02 5.1851514146374685e-02  1.2596460125876585e-01 4.2204299141277851e-02 5.2315560766479453e-02  1.4611554089040876e-01 4.2396607989951353e-02 5.2498568589732113e-02  1.6650532938053506e-01 4.2462969992245900e-02 5.2583118305177076e-02  1.8710551028215960e-01 4.2550855135701671e-02 5.2701647937147059e-02  2.0787787938926652e-01 4.2778573189670960e-02 5.2947933341690324e-02  2.2874483830553341e-01 4.3272918753328032e-02 5.3384594240686048e-02  -1.2039091449049259e-03 4.5231496475083791e-04 4.6072577137476402e-04  7.3007648028387499e-03 1.0486511638806095e-02 2.5088927137830515e-02  2.5014497172277189e-02 1.8953598137883207e-02 3.9250219949891946e-02  4.4418491977502278e-02 2.4858194936901040e-02 4.6726687340472681e-02  6.4079592133065535e-02 2.8539096620266210e-02 5.0239135466402872e-02  8.3956533684877016e-02 3.0611629101477474e-02 5.1942816850106634e-02  1.0405608518378232e-01 3.1654823828791694e-02 5.2647068583972258e-02  1.2435766416913586e-01 3.2096050022322194e-02 5.2843456628886121e-02  1.4483627751257272e-01 3.2226006564840093e-02 5.2814828989986032e-02  1.6546603155433490e-01 3.2239067132747691e-02 5.2735934055584979e-02  1.8622654763812285e-01 3.2273322289859345e-02 5.2726656299605872e-02  2.0709847439444795e-01 3.2449183883887768e-02 5.2866398158381102e-02  2.2804628391660089e-01 3.2914632832731848e-02 5.3206730991842435e-02  -1.1600189598308772e-03 3.5951813661510787e-04 4.8344692335214594e-04  6.9364740166620144e-03 6.7570898248145786e-03 2.5713970110571176e-02  2.3873312957330289e-02 1.2274774356162281e-02 4.0406493450061087e-02  4.2720448175357480e-02 1.6357872969376325e-02 4.8048177884390836e-02  6.2174210847365886e-02 1.9036135256860508e-02 5.1470973808867254e-02  8.2121347815570123e-02 2.0597776986512082e-02 5.2952512107510924e-02  1.0243774098053107e-01 2.1400625971983719e-02 5.3403316967474225e-02  1.2299756065576470e-01 2.1742946784673495e-02 5.3365135186008023e-02  1.4371335447079525e-01 2.1841668098808987e-02 5.3138520840728676e-02  1.6453052026403589e-01 2.1846989983915103e-02 5.2898774725034341e-02  1.8542233787533402e-01 2.1867335619203690e-02 5.2758241580703462e-02  2.0638057211686547e-01 2.2004275274876261e-02 5.2787248560100211e-02  2.2740737565075056e-01 2.2384178649041620e-02 5.3032636921527633e-02  -1.1426899102037163e-03 3.0931987349422363e-04 5.0360363064952905e-04  6.7545003302012744e-03 3.4843106185268122e-03 2.6083753655068806e-02  2.3295416736742281e-02 6.2388441926609188e-03 4.1091083469309904e-02  4.1793933129882894e-02 8.3232295879594811e-03 4.8868382344138588e-02  6.1064047135520487e-02 9.7347617940362254e-03 5.2266296462973053e-02  8.0990154074143644e-02 1.0582733329587203e-02 5.3627346540032247e-02  1.0139376700587828e-01 1.1033674477775032e-02 5.3923484482516972e-02  1.2208813860853816e-01 1.1238182511382280e-02 5.3732429239962916e-02  1.4294127425174469e-01 1.1310662360145211e-02 5.3370876378693435e-02  1.6387338680507862e-01 1.1332562174570142e-02 5.3017701629679267e-02  1.8484854359684924e-01 1.1363083988430332e-02 5.2782061495289773e-02  2.0586425180826967e-01 1.1462102085121453e-02 5.2730444890254247e-02  2.2694766838591052e-01 1.1698525164960930e-02 5.2907379467958662e-02  -1.1418406502875366e-03 2.8808484335269169e-04 5.2347372458517224e-04  6.6854254210109111e-03 4.2200196227214790e-04 2.6215722868697808e-02  2.3088987353001241e-02 4.9989744177987691e-04 4.1325931798192106e-02  4.1468352220771762e-02 5.3304561836403142e-04 4.9151542150480586e-02  6.0668559432267267e-02 5.6278613782701501e-04 5.2543800655750816e-02  8.0578200712284179e-02 5.9223904791276007e-04 5.3864992220291688e-02  1.0100408077691636e-01 6.2552922810007853e-04 5.4107752641921948e-02  1.2173979965549553e-01 6.6385000324785870e-04 5.3862917020854335e-02  1.4263765753675914e-01 7.0700318090385146e-04 5.3453262849309534e-02  1.6360839240138481e-01 7.5483482337433748e-04 5.3059160369164207e-02  1.8461205860419361e-01 8.0593911334497618e-04 5.2788651716342970e-02  2.0564845573330306e-01 8.6379985336221027e-04 5.2707666027938645e-02  2.2675280282626908e-01 9.2090972448208633e-04 5.2858776585429930e-02  -1.1561629289326379e-03 2.9184799868480692e-04 5.4525207642863380e-04  6.7077529895609549e-03 -2.6126073046038416e-03 2.6119579197548266e-02  2.3202181724947805e-02 -5.2225538220435413e-03 4.1123651227317058e-02  4.1687619533177900e-02 -7.2480892788391463e-03 4.8895346644845711e-02  6.0956591555150388e-02 -8.6040924591458037e-03 5.2285033195342806e-02  8.0884950635008168e-02 -9.3957852159803727e-03 5.3637008308935752e-02  1.0129123796792931e-01 -9.7814362540694800e-03 5.3926151579384442e-02  1.2198763467541046e-01 -9.9098873231003477e-03 5.3730759449896949e-02  1.4284203938010537e-01 -9.8963861928629392e-03 5.3366801772439541e-02  1.6377511140763401e-01 -9.8230851990532674e-03 5.3012241345098174e-02  1.8475085886050660e-01 -9.7517757346926789e-03 5.2775125474032805e-02  2.0576858551032606e-01 -9.7367438004324590e-03 5.2723039313120196e-02  2.2685322780506734e-01 -9.8606539193994043e-03 5.2896523445628431e-02  -1.1963139705427426e-03 3.3133691167262178e-04 5.6864669929526364e-04  6.8321961513701408e-03 -5.8042721484909748e-03 2.5789395509267999e-02  2.3681419838408178e-02 -1.1210357937928616e-02 4.0481511275465211e-02  4.2504321929616777e-02 -1.5256972632663219e-02 4.8108473684519378e-02  6.1959370799560674e-02 -1.7891515276296469e-02 5.1511093115866657e-02  8.1912541110323214e-02 -1.9404103082399472e-02 5.2972020424286087e-02  1.0223499170567045e-01 -2.0145039860085368e-02 5.3408512903762917e-02  1.2279896634940585e-01 -2.0412763860020902e-02 5.3361959964881890e-02  1.4351699652917793e-01 -2.0426308796550895e-02 5.3130809930225058e-02  1.6433541800470880e-01 -2.033771682495