<?xml version="1.0"?>
<VTKFile type="UnstructuredGrid"  version="0.1"  >
<UnstructuredGrid>
<Piece  NumberOfPoints="2197" NumberOfCells="10368">
<Points>
<DataArray  type="Float64"  NumberOfComponents="3"  format="ascii">0 0 0  0.08333333333333333 0 0  0.1666666666666667 0 0  0.25 0 0  0.3333333333333333 0 0  0.4166666666666667 0 0  0.5 0 0  0.5833333333333334 0 0  0.6666666666666666 0 0  0.75 0 0  0.8333333333333334 0 0  0.9166666666666666 0 0  1 0 0  0 0.08333333333333333 0  0.08333333333333333 0.08333333333333333 0  0.1666666666666667 0.08333333333333333 0  0.25 0.08333333333333333 0  0.3333333333333333 0.08333333333333333 0  0.4166666666666667 0.08333333333333333 0  0.5 0.08333333333333333 0  0.5833333333333334 0.08333333333333333 0  0.6666666666666666 0.08333333333333333 0  0.75 0.08333333333333333 0  0.8333333333333334 0.08333333333333333 0  0.9166666666666666 0.08333333333333333 0  1 0.08333333333333333 0  0 0.1666666666666667 0  0.08333333333333333 0.1666666666666667 0  0.1666666666666667 0.1666666666666667 0  0.25 0.1666666666666667 0  0.3333333333333333 0.1666666666666667 0  0.4166666666666667 0.1666666666666667 0  0.5 0.1666666666666667 0  0.5833333333333334 0.1666666666666667 0  0.6666666666666666 0.1666666666666667 0  0.75 0.1666666666666667 0  0.8333333333333334 0.1666666666666667 0  0.9166666666666666 0.1666666666666667 0  1 0.1666666666666667 0  0 0.25 0  0.08333333333333333 0.25 0  0.1666666666666667 0.25 0  0.25 0.25 0  0.3333333333333333 0.25 0  0.4166666666666667 0.25 0  0.5 0.25 0  0.5833333333333334 0.25 0  0.6666666666666666 0.25 0  0.75 0.25 0  0.8333333333333334 0.25 0  0.9166666666666666 0.25 0  1 0.25 0  0 0.3333333333333333 0  0.08333333333333333 0.3333333333333333 0  0.1666666666666667 0.3333333333333333 0  0.25 0.3333333333333333 0  0.3333333333333333 0.3333333333333333 0  0.4166666666666667 0.3333333333333333 0  0.5 0.3333333333333333 0  0.5833333333333334 0.3333333333333333 0  0.6666666666666666 0.3333333333333333 0  0.75 0.3333333333333333 0  0.8333333333333334 0.3333333333333333 0  0.9166666666666666 0.3333333333333333 0  1 0.3333333333333333 0  0 0.4166666666666667 0  0.08333333333333333 0.4166666666666667 0  0.1666666666666667 0.4166666666666667 0  0.25 0.4166666666666667 0  0.3333333333333333 0.4166666666666667 0  0.4166666666666667 0.4166666666666667 0  0.5 0.4166666666666667 0  0.5833333333333334 0.4166666666666667 0  0.6666666666666666 0.4166666666666667 0  0.75 0.4166666666666667 0  0.8333333333333334 0.4166666666666667 0  0.9166666666666666 0.4166666666666667 0  1 0.4166666666666667 0  0 0.5 0  0.08333333333333333 0.5 0  0.1666666666666667 0.5 0  0.25 0.5 0  0.3333333333333333 0.5 0  0.4166666666666667 0.5 0  0.5 0.5 0  0.5833333333333334 0.5 0  0.6666666666666666 0.5 0  0.75 0.5 0  0.8333333333333334 0.5 0  0.9166666666666666 0.5 0  1 0.5 0  0 0.5833333333333334 0  0.08333333333333333 0.5833333333333334 0  0.1666666666666667 0.5833333333333334 0  0.25 0.5833333333333334 0  0.3333333333333333 0.5833333333333334 0  0.4166666666666667 0.5833333333333334 0  0.5 0.5833333333333334 0  0.5833333333333334 0.5833333333333334 0  0.6666666666666666 0.5833333333333334 0  0.75 0.5833333333333334 0  0.8333333333333334 0.5833333333333334 0  0.9166666666666666 0.5833333333333334 0  1 0.5833333333333334 0  0 0.6666666666666666 0  0.08333333333333333 0.6666666666666666 0  0.1666666666666667 0.6666666666666666 0  0.25 0.6666666666666666 0  0.3333333333333333 0.6666666666666666 0  0.4166666666666667 0.6666666666666666 0  0.5 0.6666666666666666 0  0.5833333333333334 0.6666666666666666 0  0.6666666666666666 0.6666666666666666 0  0.75 0.6666666666666666 0  0.8333333333333334 0.6666666666666666 0  0.9166666666666666 0.6666666666666666 0  1 0.6666666666666666 0  0 0.75 0  0.08333333333333333 0.75 0  0.1666666666666667 0.75 0  0.25 0.75 0  0.3333333333333333 0.75 0  0.4166666666666667 0.75 0  0.5 0.75 0  0.5833333333333334 0.75 0  0.6666666666666666 0.75 0  0.75 0.75 0  0.8333333333333334 0.75 0  0.9166666666666666 0.75 0  1 0.75 0  0 0.8333333333333334 0  0.08333333333333333 0.8333333333333334 0  0.1666666666666667 0.8333333333333334 0  0.25 0.8333333333333334 0  0.3333333333333333 0.8333333333333334 0  0.4166666666666667 0.8333333333333334 0  0.5 0.8333333333333334 0  0.5833333333333334 0.8333333333333334 0  0.6666666666666666 0.8333333333333334 0  0.75 0.8333333333333334 0  0.8333333333333334 0.8333333333333334 0  0.9166666666666666 0.8333333333333334 0  1 0.8333333333333334 0  0 0.9166666666666666 0  0.08333333333333333 0.9166666666666666 0  0.1666666666666667 0.9166666666666666 0  0.25 0.9166666666666666 0  0.3333333333333333 0.9166666666666666 0  0.4166666666666667 0.9166666666666666 0  0.5 0.9166666666666666 0  0.5833333333333334 0.9166666666666666 0  0.6666666666666666 0.9166666666666666 0  0.75 0.9166666666666666 0  0.8333333333333334 0.9166666666666666 0  0.9166666666666666 0.9166666666666666 0  1 0.9166666666666666 0  0 1 0  0.08333333333333333 1 0  0.1666666666666667 1 0  0.25 1 0  0.3333333333333333 1 0  0.4166666666666667 1 0  0.5 1 0  0.5833333333333334 1 0  0.6666666666666666 1 0  0.75 1 0  0.8333333333333334 1 0  0.9166666666666666 1 0  1 1 0  0 0 0.08333333333333333  0.08333333333333333 0 0.08333333333333333  0.1666666666666667 0 0.08333333333333333  0.25 0 0.08333333333333333  0.3333333333333333 0 0.08333333333333333  0.4166666666666667 0 0.08333333333333333  0.5 0 0.08333333333333333  0.5833333333333334 0 0.08333333333333333  0.6666666666666666 0 0.08333333333333333  0.75 0 0.08333333333333333  0.8333333333333334 0 0.08333333333333333  0.9166666666666666 0 0.08333333333333333  1 0 0.08333333333333333  0 0.08333333333333333 0.08333333333333333  0.08333333333333333 0.08333333333333333 0.08333333333333333  0.1666666666666667 0.08333333333333333 0.08333333333333333  0.25 0.08333333333333333 0.08333333333333333  0.3333333333333333 0.08333333333333333 0.08333333333333333  0.4166666666666667 0.08333333333333333 0.08333333333333333  0.5 0.08333333333333333 0.08333333333333333  0.5833333333333334 0.08333333333333333 0.08333333333333333  0.6666666666666666 0.08333333333333333 0.08333333333333333  0.75 0.08333333333333333 0.08333333333333333  0.8333333333333334 0.08333333333333333 0.08333333333333333  0.9166666666666666 0.08333333333333333 0.08333333333333333  1 0.08333333333333333 0.08333333333333333  0 0.1666666666666667 0.08333333333333333  0.08333333333333333 0.1666666666666667 0.08333333333333333  0.1666666666666667 0.1666666666666667 0.08333333333333333  0.25 0.1666666666666667 0.08333333333333333  0.3333333333333333 0.1666666666666667 0.08333333333333333  0.4166666666666667 0.1666666666666667 0.08333333333333333  0.5 0.1666666666666667 0.08333333333333333  0.5833333333333334 0.1666666666666667 0.08333333333333333  0.6666666666666666 0.1666666666666667 0.08333333333333333  0.75 0.1666666666666667 0.08333333333333333  0.8333333333333334 0.1666666666666667 0.08333333333333333  0.9166666666666666 0.1666666666666667 0.08333333333333333  1 0.1666666666666667 0.08333333333333333  0 0.25 0.08333333333333333  0.08333333333333333 0.25 0.08333333333333333  0.1666666666666667 0.25 0.08333333333333333  0.25 0.25 0.08333333333333333  0.3333333333333333 0.25 0.08333333333333333  0.4166666666666667 0.25 0.08333333333333333  0.5 0.25 0.08333333333333333  0.5833333333333334 0.25 0.08333333333333333  0.6666666666666666 0.25 0.08333333333333333  0.75 0.25 0.08333333333333333  0.8333333333333334 0.25 0.08333333333333333  0.9166666666666666 0.25 0.08333333333333333  1 0.25 0.08333333333333333  0 0.3333333333333333 0.08333333333333333  0.08333333333333333 0.3333333333333333 0.08333333333333333  0.1666666666666667 0.3333333333333333 0.08333333333333333  0.25 0.3333333333333333 0.08333333333333333  0.3333333333333333 0.3333333333333333 0.08333333333333333  0.4166666666666667 0.3333333333333333 0.08333333333333333  0.5 0.3333333333333333 0.08333333333333333  0.5833333333333334 0.3333333333333333 0.08333333333333333  0.6666666666666666 0.3333333333333333 0.08333333333333333  0.75 0.3333333333333333 0.08333333333333333  0.8333333333333334 0.3333333333333333 0.08333333333333333  0.9166666666666666 0.3333333333333333 0.08333333333333333  1 0.3333333333333333 0.08333333333333333  0 0.4166666666666667 0.08333333333333333  0.08333333333333333 0.4166666666666667 0.08333333333333333  0.1666666666666667 0.4166666666666667 0.08333333333333333  0.25 0.4166666666666667 0.08333333333333333  0.3333333333333333 0.4166666666666667 0.08333333333333333  0.4166666666666667 0.4166666666666667 0.08333333333333333  0.5 0.4166666666666667 0.08333333333333333  0.5833333333333334 0.4166666666666667 0.08333333333333333  0.6666666666666666 0.4166666666666667 0.08333333333333333  0.75 0.4166666666666667 0.08333333333333333  0.8333333333333334 0.4166666666666667 0.08333333333333333  0.9166666666666666 0.4166666666666667 0.08333333333333333  1 0.4166666666666667 0.08333333333333333  0 0.5 0.08333333333333333  0.08333333333333333 0.5 0.08333333333333333  0.1666666666666667 0.5 0.08333333333333333  0.25 0.5 0.08333333333333333  0.3333333333333333 0.5 0.08333333333333333  0.4166666666666667 0.5 0.08333333333333333  0.5 0.5 0.08333333333333333  0.5833333333333334 0.5 0.08333333333333333  0.6666666666666666 0.5 0.08333333333333333  0.75 0.5 0.08333333333333333  0.8333333333333334 0.5 0.08333333333333333  0.9166666666666666 0.5 0.08333333333333333  1 0.5 0.08333333333333333  0 0.5833333333333334 0.08333333333333333  0.08333333333333333 0.5833333333333334 0.08333333333333333  0.1666666666666667 0.5833333333333334 0.08333333333333333  0.25 0.5833333333333334 0.08333333333333333  0.3333333333333333 0.5833333333333334 0.08333333333333333  0.4166666666666667 0.5833333333333334 0.08333333333333333  0.5 0.5833333333333334 0.08333333333333333  0.5833333333333334 0.5833333333333334 0.08333333333333333  0.6666666666666666 0.5833333333333334 0.08333333333333333  0.75 0.5833333333333334 0.08333333333333333  0.8333333333333334 0.5833333333333334 0.083
[...]
<PointData  Vectors="f_31"> 
<DataArray  type="Float64"  Name="f_31"  NumberOfComponents="3" format="ascii">2.2927579160530037e-03 6.3044046427616629e-03 6.3044046427618364e-03  2.9417085927818311e-02 3.3817135751408711e-02 3.3817135751408905e-02  4.7449933996776043e-02 4.5197574616312304e-02 4.5197574616312304e-02  6.2361059235838963e-02 5.2478922631829496e-02 5.2478922631828684e-02  7.7602109893617807e-02 5.6955252458038994e-02 5.6955252458035940e-02  9.3788224998053421e-02 5.9740509165557072e-02 5.9740509165552194e-02  1.1100974686026524e-01 6.1447984534438276e-02 6.1447984534430504e-02  1.2921041420181262e-01 6.2482245549833559e-02 6.2482245549823755e-02  1.4826064114369958e-01 6.3120876106407472e-02 6.3120876106395815e-02  1.6801155251681560e-01 6.3558352904508869e-02 6.3558352904495838e-02  1.8830065706383622e-01 6.3937723184029724e-02 6.3937723184015791e-02  2.0897813445344432e-01 6.4365897643426345e-02 6.4365897643411399e-02  2.2979847963227590e-01 6.4911171425802425e-02 6.4911171425786382e-02  3.3119827204887907e-05 9.1683657737066059e-04 5.9509345853645743e-03  2.0536739180901563e-02 2.3206934446196609e-02 3.5995808268311037e-02  3.9831574696785048e-02 3.6610022337995984e-02 4.6503363417055972e-02  5.6759035146762567e-02 4.4333276119424413e-02 5.3336251778574401e-02  7.3720805837020689e-02 4.8657412894336977e-02 5.7471475902953678e-02  9.1133270142149683e-02 5.1077415730642499e-02 6.0061870269520243e-02  1.0920582068635196e-01 5.2377105600700261e-02 6.1642481282141233e-02  1.2797626793513553e-01 5.3027417005396149e-02 6.2592642838844068e-02  1.4738202205438430e-01 5.3334007346665012e-02 6.3174322468625199e-02  1.6732589515825275e-01 5.3500137445191796e-02 6.3572252259703352e-02  1.8769683659671491e-01 5.3673366092587646e-02 6.3926251557880162e-02  2.0838401413675736e-01 5.3961427646959784e-02 6.4347079208085231e-02  2.2921044396289184e-01 5.4481645697423128e-02 6.4880464516787140e-02  4.5623110168042588e-04 6.5412027656669511e-04 5.7725975225784909e-03  1.8087415842635537e-02 1.6027154408765277e-02 3.7631949389031416e-02  3.5415630541068714e-02 2.7806359976949732e-02 4.8764216348671771e-02  5.2274214690335538e-02 3.5215756511767025e-02 5.5301600830996923e-02  6.9925681805038734e-02 3.9456076037623147e-02 5.8941762409699575e-02  8.8144313924458442e-02 4.1710406346051214e-02 6.1096025961961245e-02  1.0692976816217378e-01 4.2790910840342804e-02 6.2335306929919641e-02  1.2626257536152358e-01 4.3216265550314138e-02 6.3029008804992973e-02  1.4607542812651156e-01 4.3316418186777644e-02 6.3421167309550538e-02  1.6629054412567038e-01 4.3303685709093091e-02 6.3678841163798558e-02  1.8682669324829829e-01 4.3325424167152203e-02 6.3929113092397377e-02  2.0759982416738734e-01 4.3496452067398099e-02 6.4266456818560108e-02  2.2848077428549127e-01 4.4006169250654190e-02 6.4722841358825389e-02  5.5042079919400203e-04 4.9839914661651131e-04 5.7236621661588185e-03  1.7422046015200372e-02 1.1091876818178900e-02 3.8671076757142264e-02  3.3251707570306932e-02 1.9925972636204672e-02 5.0592820281124433e-02  4.9342653572690610e-02 2.6035655374983171e-02 5.7205592253856095e-02  6.6931766952417607e-02 2.9739814369205725e-02 6.0574800815415830e-02  8.5468614516133593e-02 3.1734580268919850e-02 6.2354102418291021e-02  1.0470168396951840e-01 3.2656868269151901e-02 6.3235050186796801e-02  1.2446992435990156e-01 3.2969995653722724e-02 6.3626931087751554e-02  1.4464317476618582e-01 3.2981805541412883e-02 6.3778637545538405e-02  1.6512458626350751e-01 3.2892609959208952e-02 6.3847556313970003e-02  1.8583675359512436e-01 3.2838523164197032e-02 6.3946053200648584e-02  2.0670529967001713e-01 3.2943677336283617e-02 6.4145983004726806e-02  2.2765395308848357e-01 3.3414642525767702e-02 6.4468835011430400e-02  6.1818012710304052e-04 4.0383008002529324e-04 5.7057275841516696e-03  1.7192603631616486e-02 7.1324257588641065e-03 3.9350617185356727e-02  3.2194560595008068e-02 1.2945950314931405e-02 5.1857326945999760e-02  4.7593485497645492e-02 1.7200325092235149e-02 5.8651786834717896e-02  6.4880172014380219e-02 1.9910538097576438e-02 6.1915563624122691e-02  8.3450135713101017e-02 2.1418606047550741e-02 6.3451132859330697e-02  1.0290144949152981e-01 2.2125396060214322e-02 6.4056110841077901e-02  1.2294719725480147e-01 2.2360694185062587e-02 6.4192658460601584e-02  1.4338147008727611e-01 2.2357944030715556e-02 6.4127733737553219e-02  1.6407039516087182e-01 2.2273748746076554e-02 6.4017943948034839e-02  1.8492425481945379e-01 2.2215178487889179e-02 6.3964975061246071e-02  2.0587427808869715e-01 2.2293713264656075e-02 6.4023745605895840e-02  2.2688735737774887e-01 2.2669052811771857e-02 6.4210880777105447e-02  6.5327916165100984e-04 3.4193564490123715e-04 5.7101465147117890e-03  1.7110234626752704e-02 3.6369128134167909e-03 3.9747358974680957e-02  3.1696153452381984e-02 6.5353998886156601e-03 5.2595270547724678e-02  4.6663036964183467e-02 8.7131704999768127e-03 5.9532759801531741e-02  6.3693840936158513e-02 1.0143918851277755e-02 6.2767334592398166e-02  8.2208798867269881e-02 1.0965109980847463e-02 6.4173043874278746e-02  1.0174178707575371e-01 1.1365156581129472e-02 6.4611591173658542e-02  1.2193136453282601e-01 1.1511670905104614e-02 6.4583671129020748e-02  1.4251660074723715e-01 1.1528458233609751e-02 6.4372956928431091e-02  1.6333202606010824e-01 1.1500898499403358e-02 6.4138794917953296e-02  1.8427419702912001e-01 1.1487243036709194e-02 6.3977158896357342e-02  2.0527887394775352e-01 1.1559077974692310e-02 6.3934319628739994e-02  2.2633676773483508e-01 1.1783027710778214e-02 6.4024153628612510e-02  6.5877102676315360e-04 2.9772903181825522e-04 5.7286739693590775e-03  1.7075528051634543e-02 3.3811637610775568e-04 3.9889839064773627e-02  3.1522663898298560e-02 3.9754323497778797e-04 5.2847827640913898e-02  4.6341761439827087e-02 4.2696959726954548e-04 5.9833403931257939e-02  6.3278843046469621e-02 4.4889019358043317e-04 6.3059239065307138e-02  8.1766195634057751e-02 4.7463755049012362e-04 6.4421738082746580e-02  1.0131961579169997e-01 5.0805421445267792e-04 6.4803571435157525e-02  1.2155322679354216e-01 5.4933759498734694e-04 6.4718797149131077e-02  1.4218668702145501e-01 5.9668236023356115e-04 6.4457087579026170e-02  1.6304319972961484e-01 6.4912253041835878e-04 6.4179032816247858e-02  1.8401364222529368e-01 7.0384230151123133e-04 6.3978394087867804e-02  2.0503842350597495e-01 7.7388288148712856e-04 6.3900178347190362e-02  2.2610994261253076e-01 8.1394723763354097e-04 6.3955391431262540e-02  6.4422629638230576e-04 2.6428905423647796e-04 5.7611522472008764e-03  1.7060988292404985e-02 -2.9334660820787032e-03 3.9788755204190451e-02  3.1609669511071109e-02 -5.7212169293164358e-03 5.2630991324941319e-02  4.6564017328321251e-02 -7.8496460945111299e-03 5.9554191475621458e-02  6.3598833307954308e-02 -9.2409475943657123e-03 6.2773997083414232e-02  8.2123274873244168e-02 -1.0012684373589174e-02 6.4168980545314169e-02  1.0166260657239312e-01 -1.0345498115488199e-02 6.4602134034030881e-02  1.2185410000176761e-01 -1.0409102645235861e-02 6.4572473861143370e-02  1.4243742509807980e-01 -1.0331317058927954e-02 6.4362025319269003e-02  1.6324953846216764e-01 -1.0199770604568538e-02 6.4129177816886790e-02  1.8418669001804608e-01 -1.0077955629007120e-02 6.3968246097541384e-02  2.0519411692140679e-01 -1.0014799925517211e-02 6.3929385242730452e-02  2.2624444757330719e-01 -1.0156644249890226e-02 6.4020644006858238e-02  5.7008641174423260e-04 3.0658692505387218e-04 5.8216636186633501e-03  1.7076192856448617e-02 -6.3597729784937700e-03 3.9439121152418877e-02  3.2011062574820115e-02 -1.2082710737136916e-02 5.1931584429957434e-02  4.7390435122787178e-02 -1.6305716776090825e-02 5.8693498852981960e-02  6.4693910787359893e-02 -1.8994881790167999e-02 6.1924339501990409e-02  8.3283289928630391e-02 -2.0455818855200741e-02 6.3440316389442808e-02  1.0274606954709763e-01 -2.1094476366633499e-02 6.4036369306570792e-02  1.2279305718353627e-01 -2.1246076236473999e-02 6.4171093370930299e-02  1.4322206331878978e-01 -2.1149511622211879e-02 6.4107598755505937e-02  1.6390365494022624e-01 -2.0964229777265399e-02 6.4000706847443800e-02  1.8474729734015849e-01 -2.0801140352659925e-02 6.3949306745721052e-02  2.0570156521716143e-01 -2.0759160711793644e-02 6.4014981565045176e-02  2.2670104098282326e-01 -2.1046409910721195e-02 6.4204823846589779e-02  4.4134257703526896e-04 2.2194843698374300e-04 5.8928102521848946e-03  1.7265527123550027e-02 -1.0210909170974079e-02 3.8814888469222923e-02  3.2933750200127981e-02 -1.8928520962745245e-02 5.0723295768907238e-02  4.9043919338174619e-02 -2.5106891955812734e-02 5.7252434784827541e-02  6.6663806966089367e-02 -2.8803287087570038e-02 6.0577035839924326e-02  8.5232213255973022e-02 -3.0752283711299875e-02 6.2331367609932409e-02  1.0447394659600932e-01 -3.1604062068006707e-02 6.3205591265389313e-02  1.2423766458697318e-01 -3.1834004316811305e-02 6.3598092405271478e-02  1.4439936415153595e-01 -3.1754783849994778e-02 6.3753685313268915e-02  1.6486815485892573e-01 -3.1569992913618804e-02 6.3827391155001065e-02  1.8556582061929261e-01 -3.1416491530003414e-02 6.3929025584608751e-02  2.0643796914131352e-01 -3.1422099771984950e-02 6.4136232593162479e-02  2.2737060649332025e-01 -3.1795348262408672e-02 6.4461986456056192e-02  4.8790538609407903e-04 5.5396105404741515e-04 6.1825519600341907e-03  1.7664584913854267e-02 -1.4592091906170761e-02 3.7951503879932513e-02  3.4937553999006575e-02 -2.6756083130083246e-02 4.8884496832222062e-02  5.1861853050392363e-02 -3.4268009350375522e-02 5.5330135453437054e-02  6.9617370105345244e-02 -3.8506757851972613e-02 5.8914066201965633e-02  8.7849420558556199e-02 -4.0703129172243196e-02 6.1061125683948718e-02  1.0663035798780025e-01 -4.1710359368577990e-02 6.2300234198378310e-02  1.2594657396810657e-01 -4.2054968877567094e-02 6.2998903847679630e-02  1.4573963043998045e-01 -4.2069027939920622e-02 6.3397336036720375e-02  1.6593773758718999e-01 -4.1967206645674847e-02 6.3661255061993355e-02  1.8645900342121877e-01 -4.1893427661384985e-02 6.3917004654631029e-02  2.0722975516908071e-01 -4.1985224106388358e-02 6.4258523098387935e-02  2.2809622678475552e-01 -4.2387152080611994e-02 6.4717570391565893e-02  -1.5311034453888656e-03 3.9825344423764980e-05 6.1490017397432513e-03  2.0348402719009236e-02 -2.1857356835673799e-02 3.6075948956480093e-02  3.9251664165510652e-02 -3.5589845937512202e-02 4.6614482697089593e-02  5.6497570002028423e-02 -4.3349688351648770e-02 5.3266766876199738e-02  7.3421513182063788e-02 -4.7641253739057803e-02 5.7442629515481736e-02  9.0800089668854694e-02 -5.0013637179057213e-02 6.0033404688408405e-02  1.0883309994007921e-01 -5.1250563700172107e-02 6.1621406647301612e-02  1.2756758611578944e-01 -5.1830660888949213e-02 6.2578691627606653e-02  1.4694309333589467e-01 -5.2060789755701983e-02 6.3166754951848647e-02  1.6686360989298674e-01 -5.2146641274341578e-02 6.3570709629927932e-02  1.8721690070229069e-01 -5.2233079421541345e-02 6.3930379021526318e-02  2.0789242337690253e-01 -5.2451975852675164e-02 6.4347791625074258e-02  2.2871798130608340e-01 -5.2862581736098237e-02 6.4883101277829688e-02  1.7528562089353633e-03 -6.8964432788022343e-03 7.0101315659925395e-03  2.9175485423781646e-02 -3.1491922175210692e-02 3.6174820470346564e-02  4.7542555700843286e-02 -4.4439017767412853e-02 4.5163009626429357e-02  6.2069145343499485e-02 -5.1584934646455818e-02 5.2595013589118056e-02  7.7221109126024368e-02 -5.6004277720790932e-02 5.6975919341684389e-02  9.3333790185310614e-02 -5.8712408971440679e-02 5.9728901231211294e-02  1.1048637054045755e-01 -6.0345797094558125e-02 6.1431419429816572e-02  1.2864640775362854e-01 -6.1300498192640294e-02 6.2465111752527218e-02  1.4766842566003555e-01 -6.1856695069634759e-02 6.3107233593157550e-02  1.6740041254281335e-01 -6.2209935777676695e-02 6.3550538749750987e-02  1.8768745417717914e-01 -6.2503550793618190e-02 6.3936988158695196e-02  2.0836454441271265e-01 -6.2850742205315238e-02 6.4367561638382628e-02  2.2920304965663227e-01 -6.3290123201767939e-02 6.4910043105084025e-02  3.3119827204886924e-05 5.9509345853645647e-03 9.1683657737084219e-04  2.0536739180901924e-02 3.5995808268311502e-02 2.3206934446196807e-02  3.9831574696785860e-02 4.6503363417057415e-02 3.6610022337995596e-02  5.6759035146763899e-02 5.3336251778577037e-02 4.4333276119423330e-02  7.3720805837022008e-02 5.7471475902957404e-02 4.8657412894333771e-02  9.1133270142151057e-02 6.0061870269525953e-02 5.1077415730637184e-02  1.0920582068635380e-01 6.1642481282149442e-02 5.2377105600692628e-02  1.2797626793513672e-01 6.2592642838853740e-02 5.3027417005386504e-02  1.4738202205438497e-01 6.3174322468636440e-02 5.3334007346653244e-02  1.6732589515825344e-01 6.3572252259715883e-02 5.3500137445178689e-02  1.8769683659671560e-01 6.3926251557893707e-02 5.3673366092573505e-02  2.0838401413675825e-01 6.4347079208099650e-02 5.3961427646944629e-02  2.2921044396289300e-01 6.4880464516802780e-02 5.4481645697407224e-02  -2.1029454243571160e-03 2.0486961595433831e-04 2.0486961595443431e-04  1.0267663755236500e-02 2.3758674343507452e-02 2.3758674343507098e-02  3.1718760167781350e-02 3.6724441860844489e-02 3.6724441860843220e-02  5.1058644799179001e-02 4.4495928549775791e-02 4.4495928549773356e-02  6.9974977616862874e-02 4.8642404270262653e-02 4.8642404270258767e-02  8.8613701875678200e-02 5.1036780975642668e-02 5.1036780975636985e-02  1.0752965069043284e-01 5.2327502902498040e-02 5.2327502902490351e-02  1.2685225793651181e-01 5.2983412418496766e-02 5.2983412418487329e-02  1.4659481791393089e-01 5.3301305991880182e-02 5.3301305991868976e-02  1.6671699516232052e-01 5.3480802690558708e-02 5.3480802690546038e-02  1.8715686618007152e-01 5.3667970931286398e-02 5.3667970931272728e-02  2.0784084036520753e-01 5.3973616801008546e-02 5.3973616800994190e-02  2.2865452654335428e-01 5.4473120227761761e-02 5.4473120227746308e-02  -1.4075695608855624e-03 5.1211108803762135e-04 2.9582198142656527e-04  7.8654187260782452e-03 1.5808714363464829e-02 2.5058055046136916e-02  2.7199241897518208e-02 2.7394392377784762e-02 3.8588744348155346e-02  4.6567943122037041e-02 3.4751706809980243e-02 4.6224070307156695e-02  6.6286012417756252e-02 3.9010879385885169e-02 4.9895353877680772e-02  8.5744855729700462e-02 4.1349484477224481e-02 5.1919354239156432e-02  1.0537830628551094e-01 4.2514582381471516e-02 5.2907515088117862e-02  1.2524938062087743e-01 4.3022421495623853e-02 5.3342835530967116e-02  1.4538220600881147e-01 4.3195139611789654e-02 5.3502080892178241e-02  1.6576171399651785e-01 4.3244486491318762e-02 5.3568547245469965e-02  1.8635796487060430e-01 4.3320162916798861e-02 5.3675740847742563e-02  2.0713249314291116e-01 4.3540402560570839e-02 5.3918405977173213e-02  2.2800386744175655e-01 4.4034640564227824e-02 5.4356115440589700e-02  -1.3994201193424040e-03 3.4475274422068967e-04 3.2991529960154964e-04  6.9766791895301498e-03 1.0738885499522469e-02 2.6061953115689301e-02  2.4762454449467647e-02 1.9422612313650146e-02 4.0344700014878498e-02  4.3635570555417696e-02 2.5435901348250845e-02 4.8004702856840727e-02  6.3385524953210065e-02 2.9166571773084703e-02 5.1438243762358719e-02  8.3205505764899643e-02 3.1248575930107884e-02 5.3114472841271333e-02  1.0329417160282749e-01 3.2281661317428316e-02 5.3759515214782880e-02  1.2358780276481147e-01 3.2704818484146886e-02 5.3907807310249314e-02  1.4406371791828876e-01 3.2814856235184695e-02 5.3840340988013768e-02  1.6469485891820476e-01 3.2810266438219424e-02 5.3732418736646144e-02  1.8545959404063467e-01 3.2830901958760088e-02 5.3704082965616753e-02  2.0633718375929111e-01 3.2999341150299386e-02 5.3834426585695754e-02  2.2729114347909399e-01 3.3469282196540287e-02 5.4170561788785536e-02  -1.3543048684749989e-03 2.8663144674214466e-04 3.4719501012906470e-04  6.5564432231225303e-03 6.8688901739568107e-03 2.6742922459509041e-02  2.3522192164877394e-02 1.2548705943830007e-02 4.1600541961599971e-02  4.1848584697815931e-02 1.6713604945709986e-02 4.9422800376955650e-02  6.1387034713152079e-02 1.9427279709033615e-02 5.2759456164109847e-02  8.1296900330639868e-02 2.0997621028386582e-02 5.4191417506732967e-02  1.0161848648848706e-01 2.1794189994912071e-02 5.4564039445770728e-02  1.2218391500906099e-01 2.2122824199601036e-02 5.4461703798032571e-02  1.4290829988782566e-01 2.2206294488834259e-02 5.4183496246083783e-02  1.6373527048720130e-01 2.2197927184013332e-02 5.3905068541355947e-02  1.8463637106501643e-01 2.2207902702270913e-02 5.3737980664889003e-02  2.0560242577774532e-01 2.2340775584288076e-02 5.3751626609851083e-02  2.2663837205887988e-01 2.2727556538435244e-02 5.3987702255141323e-02  -1.3382302721884824e-03 2.6599334085737310e-04 3.6236982627610101e-04  6.3568594028832687e-03 3.5011384893248072e-03 2.7136524901966792e-02  2.2908163418942539e-02 6.3257264577631280e-03 4.2343648443717012e-02  4.0876031383907968e-02 8.4517578697271192e-03 5.0302111559187276e-02  6.0226761309498500e-02 9.8797761347987935e-03 5.3607317219524345e-02  8.0123165713145414e-02 1.0731097965964172e-02 5.4907672987028450e-02  1.0054035833300554e-01 1.1178212186835188e-02 5.5114740681263728e-02  1.2124896346888056e-01 1.1375834969786910e-02 5.4849271217564381e-02  1.4211750204678303e-01 1.1441132114056866e-02 5.4427923853089311e-02  1.6306391149610572e-01 1.1456810155696015e-02 5.4029808966706019e-02  1.8405053507419275e-01 1.1483319653209796e-02 5.3762791570327512e-02  2.0507536727794939e-01 1.1582534523091721e-02 5.3692309136357856e-02  2.2617045197971011e-01 1.1824713505749053e-02 5.3857130892770680e-02  -1.3401288950468009e-03 2.6027166086035560e-04 3.8151730364032697e-04  6.2846149561729837e-03 3.4415239105511203e-04 2.7274922451739358e-02  2.2693697296647594e-02 4.0777849758921107e-04 4.2598149101382543e-02  4.0537994980779105e-02 4.3482148223454326e-04 5.0602036203647234e-02  5.9818997470778651e-02 4.5710712076277527e-04 5.3897607485666479e-02  7.9702334494034119e-02 4.8177977464738107e-04 5.5154411241986036e-02  1.0014556959153521e-01 5.1386351946405417e-04 5.5305040838401862e-02  1.2089860640612063e-01 5.5365846407938099e-04 5.4983228982466707e-02  1.4181336646367707e-01 5.9957733042085464e-04 5.4511976482900674e-02  1.6279859355132423e-01 6.5044509652437956e-04 5.4071740932721421e-02  1.8381304496950918e-01 7.0494027903329867e-04 5.3769228147472869e-02  2.0485858615606972e-01 7.6666442330519842e-04 5.3669533468437676e-02  2.2597539312508169e-01 8.2619487684475938e-04 5.3808871812718213e-02  -1.3547280578016273e-03 2.6932914439788331e-04 4.0796872506956996e-04  6.3140328797828505e-03 -2.7872666721916561e-03 2.7167215065159102e-02  2.2820906358022884e-02 -5.4910266428392441e-03 4.2375424534245365e-02  4.0775943959302542e-02 -7.5734394343807314e-03 5.0317666288134173e-02  6.0131170323293417e-02 -8.9625621086253035e-03 5.3608888414746890e-02  8.0036407311008209e-02 -9.7663447491669279e-03 5.4899852985168751e-02  1.0045929208071619e-01 -1.0148594991963538e-02 5.5102792065681576e-02  1.2116964981706242e-01 -1.0265994495357112e-02 5.4836561358789268e-02  1.4203639051296202e-01 -1.0239261561473430e-02 5.4416375746461763e-02  1.6297954175693588e-01 -1.0153722736859274e-02 5.4020134921735352e-02  1.8396243626470926e-01 -1.0072468608729498e-02 5.3754917629569465e-02  2.0498769133453176e-01 -1.0051286975841291e-02 5.3687966459180107e-02  2.2608353973236497e-01 -1.0176808974223005e-02 5.3853145847652745e-02  -1.4069922776000102e-03 3.3182235187849613e-04 4.4170503785264037e-04  6.4611384984492150e-03 -6.0916161303842418e-03 2.6805033793782258e-02  2.3336019370383695e-02 -1.1659321321090810e-02 4.1668027613240635e-02  4.1644078380360633e-02 -1.5811428004631718e-02 4.9452246820112844e-02  6.1198958998238462e-02 -1.8504414927922892e-02 5.2760197406993642e-02  8.1129217810566742e-02 -2.0029217332176691e-02 5.4174024593159960e-02  1.0146025714698091e-01 -2.0758449169529788e-02 5.4540726263246207e-02  1.2202636369757092e-01 -2.1004781739415838e-02 5.4438242835724196e-02  1.4274560793546417e-01 -2.0996017161691700e-02 5.4162829110960937e-02  1.6356529888616481e-01 -2.0888250068079081e-02 5.3