<?xml version="1.0"?>
<VTKFile type="UnstructuredGrid"  version="0.1"  >
<UnstructuredGrid>
<Piece  NumberOfPoints="2197" NumberOfCells="10368">
<Points>
<DataArray  type="Float64"  NumberOfComponents="3"  format="ascii">0 0 0  0.08333333333333333 0 0  0.1666666666666667 0 0  0.25 0 0  0.3333333333333333 0 0  0.4166666666666667 0 0  0.5 0 0  0.5833333333333334 0 0  0.6666666666666666 0 0  0.75 0 0  0.8333333333333334 0 0  0.9166666666666666 0 0  1 0 0  0 0.08333333333333333 0  0.08333333333333333 0.08333333333333333 0  0.1666666666666667 0.08333333333333333 0  0.25 0.08333333333333333 0  0.3333333333333333 0.08333333333333333 0  0.4166666666666667 0.08333333333333333 0  0.5 0.08333333333333333 0  0.5833333333333334 0.08333333333333333 0  0.6666666666666666 0.08333333333333333 0  0.75 0.08333333333333333 0  0.8333333333333334 0.08333333333333333 0  0.9166666666666666 0.08333333333333333 0  1 0.08333333333333333 0  0 0.1666666666666667 0  0.08333333333333333 0.1666666666666667 0  0.1666666666666667 0.1666666666666667 0  0.25 0.1666666666666667 0  0.3333333333333333 0.1666666666666667 0  0.4166666666666667 0.1666666666666667 0  0.5 0.1666666666666667 0  0.5833333333333334 0.1666666666666667 0  0.6666666666666666 0.1666666666666667 0  0.75 0.1666666666666667 0  0.8333333333333334 0.1666666666666667 0  0.9166666666666666 0.1666666666666667 0  1 0.1666666666666667 0  0 0.25 0  0.08333333333333333 0.25 0  0.1666666666666667 0.25 0  0.25 0.25 0  0.3333333333333333 0.25 0  0.4166666666666667 0.25 0  0.5 0.25 0  0.5833333333333334 0.25 0  0.6666666666666666 0.25 0  0.75 0.25 0  0.8333333333333334 0.25 0  0.9166666666666666 0.25 0  1 0.25 0  0 0.3333333333333333 0  0.08333333333333333 0.3333333333333333 0  0.1666666666666667 0.3333333333333333 0  0.25 0.3333333333333333 0  0.3333333333333333 0.3333333333333333 0  0.4166666666666667 0.3333333333333333 0  0.5 0.3333333333333333 0  0.5833333333333334 0.3333333333333333 0  0.6666666666666666 0.3333333333333333 0  0.75 0.3333333333333333 0  0.8333333333333334 0.3333333333333333 0  0.9166666666666666 0.3333333333333333 0  1 0.3333333333333333 0  0 0.4166666666666667 0  0.08333333333333333 0.4166666666666667 0  0.1666666666666667 0.4166666666666667 0  0.25 0.4166666666666667 0  0.3333333333333333 0.4166666666666667 0  0.4166666666666667 0.4166666666666667 0  0.5 0.4166666666666667 0  0.5833333333333334 0.4166666666666667 0  0.6666666666666666 0.4166666666666667 0  0.75 0.4166666666666667 0  0.8333333333333334 0.4166666666666667 0  0.9166666666666666 0.4166666666666667 0  1 0.4166666666666667 0  0 0.5 0  0.08333333333333333 0.5 0  0.1666666666666667 0.5 0  0.25 0.5 0  0.3333333333333333 0.5 0  0.4166666666666667 0.5 0  0.5 0.5 0  0.5833333333333334 0.5 0  0.6666666666666666 0.5 0  0.75 0.5 0  0.8333333333333334 0.5 0  0.9166666666666666 0.5 0  1 0.5 0  0 0.5833333333333334 0  0.08333333333333333 0.5833333333333334 0  0.1666666666666667 0.5833333333333334 0  0.25 0.5833333333333334 0  0.3333333333333333 0.5833333333333334 0  0.4166666666666667 0.5833333333333334 0  0.5 0.5833333333333334 0  0.5833333333333334 0.5833333333333334 0  0.6666666666666666 0.5833333333333334 0  0.75 0.5833333333333334 0  0.8333333333333334 0.5833333333333334 0  0.9166666666666666 0.5833333333333334 0  1 0.5833333333333334 0  0 0.6666666666666666 0  0.08333333333333333 0.6666666666666666 0  0.1666666666666667 0.6666666666666666 0  0.25 0.6666666666666666 0  0.3333333333333333 0.6666666666666666 0  0.4166666666666667 0.6666666666666666 0  0.5 0.6666666666666666 0  0.5833333333333334 0.6666666666666666 0  0.6666666666666666 0.6666666666666666 0  0.75 0.6666666666666666 0  0.8333333333333334 0.6666666666666666 0  0.9166666666666666 0.6666666666666666 0  1 0.6666666666666666 0  0 0.75 0  0.08333333333333333 0.75 0  0.1666666666666667 0.75 0  0.25 0.75 0  0.3333333333333333 0.75 0  0.4166666666666667 0.75 0  0.5 0.75 0  0.5833333333333334 0.75 0  0.6666666666666666 0.75 0  0.75 0.75 0  0.8333333333333334 0.75 0  0.9166666666666666 0.75 0  1 0.75 0  0 0.8333333333333334 0  0.08333333333333333 0.8333333333333334 0  0.1666666666666667 0.8333333333333334 0  0.25 0.8333333333333334 0  0.3333333333333333 0.8333333333333334 0  0.4166666666666667 0.8333333333333334 0  0.5 0.8333333333333334 0  0.5833333333333334 0.8333333333333334 0  0.6666666666666666 0.8333333333333334 0  0.75 0.8333333333333334 0  0.8333333333333334 0.8333333333333334 0  0.9166666666666666 0.8333333333333334 0  1 0.8333333333333334 0  0 0.9166666666666666 0  0.08333333333333333 0.9166666666666666 0  0.1666666666666667 0.9166666666666666 0  0.25 0.9166666666666666 0  0.3333333333333333 0.9166666666666666 0  0.4166666666666667 0.9166666666666666 0  0.5 0.9166666666666666 0  0.5833333333333334 0.9166666666666666 0  0.6666666666666666 0.9166666666666666 0  0.75 0.9166666666666666 0  0.8333333333333334 0.9166666666666666 0  0.9166666666666666 0.9166666666666666 0  1 0.9166666666666666 0  0 1 0  0.08333333333333333 1 0  0.1666666666666667 1 0  0.25 1 0  0.3333333333333333 1 0  0.4166666666666667 1 0  0.5 1 0  0.5833333333333334 1 0  0.6666666666666666 1 0  0.75 1 0  0.8333333333333334 1 0  0.9166666666666666 1 0  1 1 0  0 0 0.08333333333333333  0.08333333333333333 0 0.08333333333333333  0.1666666666666667 0 0.08333333333333333  0.25 0 0.08333333333333333  0.3333333333333333 0 0.08333333333333333  0.4166666666666667 0 0.08333333333333333  0.5 0 0.08333333333333333  0.5833333333333334 0 0.08333333333333333  0.6666666666666666 0 0.08333333333333333  0.75 0 0.08333333333333333  0.8333333333333334 0 0.08333333333333333  0.9166666666666666 0 0.08333333333333333  1 0 0.08333333333333333  0 0.08333333333333333 0.08333333333333333  0.08333333333333333 0.08333333333333333 0.08333333333333333  0.1666666666666667 0.08333333333333333 0.08333333333333333  0.25 0.08333333333333333 0.08333333333333333  0.3333333333333333 0.08333333333333333 0.08333333333333333  0.4166666666666667 0.08333333333333333 0.08333333333333333  0.5 0.08333333333333333 0.08333333333333333  0.5833333333333334 0.08333333333333333 0.08333333333333333  0.6666666666666666 0.08333333333333333 0.08333333333333333  0.75 0.08333333333333333 0.08333333333333333  0.8333333333333334 0.08333333333333333 0.08333333333333333  0.9166666666666666 0.08333333333333333 0.08333333333333333  1 0.08333333333333333 0.08333333333333333  0 0.1666666666666667 0.08333333333333333  0.08333333333333333 0.1666666666666667 0.08333333333333333  0.1666666666666667 0.1666666666666667 0.08333333333333333  0.25 0.1666666666666667 0.08333333333333333  0.3333333333333333 0.1666666666666667 0.08333333333333333  0.4166666666666667 0.1666666666666667 0.08333333333333333  0.5 0.1666666666666667 0.08333333333333333  0.5833333333333334 0.1666666666666667 0.08333333333333333  0.6666666666666666 0.1666666666666667 0.08333333333333333  0.75 0.1666666666666667 0.08333333333333333  0.8333333333333334 0.1666666666666667 0.08333333333333333  0.9166666666666666 0.1666666666666667 0.08333333333333333  1 0.1666666666666667 0.08333333333333333  0 0.25 0.08333333333333333  0.08333333333333333 0.25 0.08333333333333333  0.1666666666666667 0.25 0.08333333333333333  0.25 0.25 0.08333333333333333  0.3333333333333333 0.25 0.08333333333333333  0.4166666666666667 0.25 0.08333333333333333  0.5 0.25 0.08333333333333333  0.5833333333333334 0.25 0.08333333333333333  0.6666666666666666 0.25 0.08333333333333333  0.75 0.25 0.08333333333333333  0.8333333333333334 0.25 0.08333333333333333  0.9166666666666666 0.25 0.08333333333333333  1 0.25 0.08333333333333333  0 0.3333333333333333 0.08333333333333333  0.08333333333333333 0.3333333333333333 0.08333333333333333  0.1666666666666667 0.3333333333333333 0.08333333333333333  0.25 0.3333333333333333 0.08333333333333333  0.3333333333333333 0.3333333333333333 0.08333333333333333  0.4166666666666667 0.3333333333333333 0.08333333333333333  0.5 0.3333333333333333 0.08333333333333333  0.5833333333333334 0.3333333333333333 0.08333333333333333  0.6666666666666666 0.3333333333333333 0.08333333333333333  0.75 0.3333333333333333 0.08333333333333333  0.8333333333333334 0.3333333333333333 0.08333333333333333  0.9166666666666666 0.3333333333333333 0.08333333333333333  1 0.3333333333333333 0.08333333333333333  0 0.4166666666666667 0.08333333333333333  0.08333333333333333 0.4166666666666667 0.08333333333333333  0.1666666666666667 0.4166666666666667 0.08333333333333333  0.25 0.4166666666666667 0.08333333333333333  0.3333333333333333 0.4166666666666667 0.08333333333333333  0.4166666666666667 0.4166666666666667 0.08333333333333333  0.5 0.4166666666666667 0.08333333333333333  0.5833333333333334 0.4166666666666667 0.08333333333333333  0.6666666666666666 0.4166666666666667 0.08333333333333333  0.75 0.4166666666666667 0.08333333333333333  0.8333333333333334 0.4166666666666667 0.08333333333333333  0.9166666666666666 0.4166666666666667 0.08333333333333333  1 0.4166666666666667 0.08333333333333333  0 0.5 0.08333333333333333  0.08333333333333333 0.5 0.08333333333333333  0.1666666666666667 0.5 0.08333333333333333  0.25 0.5 0.08333333333333333  0.3333333333333333 0.5 0.08333333333333333  0.4166666666666667 0.5 0.08333333333333333  0.5 0.5 0.08333333333333333  0.5833333333333334 0.5 0.08333333333333333  0.6666666666666666 0.5 0.08333333333333333  0.75 0.5 0.08333333333333333  0.8333333333333334 0.5 0.08333333333333333  0.9166666666666666 0.5 0.08333333333333333  1 0.5 0.08333333333333333  0 0.5833333333333334 0.08333333333333333  0.08333333333333333 0.5833333333333334 0.08333333333333333  0.1666666666666667 0.5833333333333334 0.08333333333333333  0.25 0.5833333333333334 0.08333333333333333  0.3333333333333333 0.5833333333333334 0.08333333333333333  0.4166666666666667 0.5833333333333334 0.08333333333333333  0.5 0.5833333333333334 0.08333333333333333  0.5833333333333334 0.5833333333333334 0.08333333333333333  0.6666666666666666 0.5833333333333334 0.08333333333333333  0.75 0.5833333333333334 0.08333333333333333  0.8333333333333334 0.5833333333333334 0.083
[...]
<PointData  Vectors="f_31"> 
<DataArray  type="Float64"  Name="f_31"  NumberOfComponents="3" format="ascii">1.3241117188335281e-03 5.2547999457768892e-03 5.2547999457768849e-03  2.1520716844266628e-02 2.8332521997173898e-02 2.8332521997173898e-02  3.8198946099984803e-02 3.8275408139501664e-02 3.8275408139501602e-02  5.2890088063765696e-02 4.4209893431164014e-02 4.4209893431164007e-02  6.8441766221884179e-02 4.7699081345717487e-02 4.7699081345717459e-02  8.5099785745593043e-02 4.9758788598521286e-02 4.9758788598521245e-02  1.0278661744697903e-01 5.0946385805667779e-02 5.0946385805667689e-02  1.2133881294203530e-01 5.1617242795474173e-02 5.1617242795474305e-02  1.4057422079158860e-01 5.1999790976271630e-02 5.1999790976271630e-02  1.6033259987425602e-01 5.2243980381470531e-02 5.2243980381470469e-02  1.8046692508505072e-01 5.2452666240059488e-02 5.2452666240059405e-02  2.0087572559359868e-01 5.2704825970359297e-02 5.2704825970359324e-02  2.2137110728152937e-01 5.3047291368548535e-02 5.3047291368548410e-02  -2.7286192658122250e-04 1.0681342860646452e-03 5.1867875645609232e-03  1.5531788304895178e-02 1.9983474928441790e-02 2.9966200424545553e-02  3.3189376612620107e-02 3.1066205617774924e-02 3.9153954556293599e-02  4.9270279186173285e-02 3.7158291900974423e-02 4.4740697761565237e-02  6.6053206201266007e-02 4.0429064538724982e-02 4.8009107935097863e-02  8.3553763683823654e-02 4.2168822175825613e-02 4.9942840892247549e-02  1.0179790433406112e-01 4.3051822116841054e-02 5.1051643520489111e-02  1.2070601353970667e-01 4.3468099811045442e-02 5.1673332873665261e-02  1.4015384273799344e-01 4.3651379036024139e-02 5.2024880180778048e-02  1.6002094521052918e-01 4.3744340990918382e-02 5.2248316796760230e-02  1.8020048460809671e-01 4.3844105769492284e-02 5.2443849032961322e-02  2.0060973681589769e-01 4.4022157468399541e-02 5.2693255077141468e-02  2.2110832849422785e-01 4.4355907733360858e-02 5.3029869029597929e-02  8.0965478622891623e-06 6.7526542542998939e-04 5.1998767958338944e-03  1.3505579351904665e-02 1.4096448818887494e-02 3.1928735298532858e-02  2.9888903732272321e-02 2.3907320154827556e-02 4.1205195834340666e-02  4.6090450087342513e-02 2.9651780821110151e-02 4.6314355926214620e-02  6.3515756725360237e-02 3.2740714769587606e-02 4.9079326337327513e-02  8.1667808114201282e-02 3.4266640448189896e-02 5.0631934326741068e-02  1.0045060091767109e-01 3.4938590239641500e-02 5.1474910503778844e-02  1.1975914529542696e-01 3.5173666963410011e-02 5.1917500070989483e-02  1.3947995008541822e-01 3.5211598158766268e-02 5.2149324834464134e-02  1.5951682070161521e-01 3.5190515106353647e-02 5.2290233314103214e-02  1.7979122926947086e-01 3.5199576302207977e-02 5.2425365615320650e-02  2.0024255367892707e-01 3.5306391617385843e-02 5.2622673432635304e-02  2.2076717955905423e-01 3.5642438436850818e-02 5.2909730509057271e-02  9.9266957262832364e-05 5.1010273776795319e-04 5.2331290158451720e-03  1.2870354481647488e-02 9.8203423605200454e-03 3.3323569647921172e-02  2.8043871975615618e-02 1.7293173662539300e-02 4.3117584843356559e-02  4.3821031883652828e-02 2.2053216858746345e-02 4.8046968861138045e-02  6.1361419642585693e-02 2.4712785841600259e-02 5.0400411709670169e-02  7.9876830882281327e-02 2.6005341097610095e-02 5.1547515905575998e-02  9.9067099579487172e-02 2.6526953429571589e-02 5.2067849727188933e-02  1.1872851166797355e-01 2.6658663309798245e-02 5.2274772399157003e-02  1.3871556226141699e-01 2.6622293621155188e-02 5.2340078979517007e-02  1.5893149498572701e-01 2.6543763052834742e-02 5.2360964523737959e-02  1.7931208484831027e-01 2.6499847785358407e-02 5.2401889226058811e-02  1.9980658947841970e-01 2.6560921429528522e-02 5.2506371100686483e-02  2.2035898394645165e-01 2.6875228814306429e-02 5.2692598193725099e-02  1.6367133217371472e-04 3.9852781196807581e-04 5.2629740238957770e-03  1.2621506201280068e-02 6.3104469228372180e-03 3.4237032318382182e-02  2.7063450010355160e-02 1.1262855891317890e-02 4.4527750304274805e-02  4.2370759202323104e-02 1.4597826905719610e-02 4.9454881770622454e-02  5.9800084958646478e-02 1.6534357634488996e-02 5.1556087501752994e-02  7.8466535335451768e-02 1.7486694072014801e-02 5.2392693510291653e-02  9.7912564238520031e-02 1.7859490319449559e-02 5.2636899709608623e-02  1.1783175551543745e-01 1.7934709933377365e-02 5.2628295517289085e-02  1.3802996394437317e-01 1.7882687588411338e-02 5.2534065896942518e-02  1.5839493576408528e-01 1.7800878104338232e-02 5.2435558898245221e-02  1.7886357548791260e-01 1.7747222273933660e-02 5.2378121852351779e-02  1.9939319278455084e-01 1.7785579232242579e-02 5.2382489058404924e-02  2.1997009310315044e-01 1.8032756626317103e-02 5.2459976832017814e-02  1.9698459747342600e-04 3.2037890332987196e-04 5.2932529673856360e-03  1.2522324554033048e-02 3.1869233406162738e-03 3.4765768943321583e-02  2.6581150685716620e-02 5.6336460364003263e-03 4.5373896716752758e-02  4.1570068113428893e-02 7.3221679229855579e-03 5.0342497231552340e-02  5.8871157589349493e-02 8.3251668659468699e-03 5.2316460182479589e-02  7.7582020054565715e-02 8.8249305105060280e-03 5.2967251899827469e-02  9.7160266937717094e-02 9.0204698698500545e-03 5.3033210620789285e-02  1.1723097902928577e-01 9.0579328156357147e-03 5.2879016763153645e-02  1.3756073658162893e-01 9.0279273953772880e-03 5.2673484512509756e-02  1.5802119477643364e-01 8.9831313078050246e-03 5.2489431357243418e-02  1.7854546415140646e-01 8.9539918098377139e-03 5.2359305824227625e-02  1.9909829387761926e-01 8.9833828797462913e-03 5.2289361050954393e-02  2.1969178032682299e-01 9.1200689760222078e-03 5.2286689141691940e-02  2.0167393833835947e-04 2.5973439381258938e-04 5.3244804249520227e-03  1.2484294553077471e-02 2.2819212800904461e-04 3.4954067672844751e-02  2.6419167621421488e-02 2.0099946240753009e-04 4.5662647551658844e-02  4.1302931494431747e-02 1.5637929283731516e-04 5.0644617740517102e-02  5.8559279415375087e-02 1.2256299678865037e-04 5.2576012794734825e-02  7.7282178264932361e-02 1.0421328078431014e-04 5.3163980529308319e-02  9.6902624207394747e-02 9.9451901790429190e-05 5.3169091169343201e-02  1.1702287439897466e-01 1.0386027246458720e-04 5.2964795512936300e-02  1.3739581317240018e-01 1.1327714876284726e-04 5.2720543965069970e-02  1.5788767096744652e-01 1.2592297503425439e-04 5.2506359743870898e-02  1.7842900702625675e-01 1.3916883925552275e-04 5.2349766856692417e-02  1.9899100895334015e-01 1.6367676530863723e-04 5.2253544268058144e-02  2.1958857795023501e-01 1.6461626778312911e-04 5.2222178855070550e-02  1.8580540613543573e-04 2.1019828263943828e-04 5.3610122070397830e-03  1.2480779956590306e-02 -2.7137802112565871e-03 3.4816018034041815e-02  2.6527527391950551e-02 -5.2275041431216829e-03 4.5400175354267762e-02  4.1533011082702888e-02 -7.0118553327710781e-03 5.0344506760009830e-02  5.8856205540551036e-02 -8.0814650764135954e-03 5.2303824709848783e-02  7.7584058748644213e-02 -8.6161550891141574e-03 5.2949456652129009e-02  9.7168702201913273e-02 -8.8190750839252270e-03 5.3016441465957125e-02  1.1723901366462387e-01 -8.8470848039056086e-03 5.2865407713829519e-02  1.3756468340218092e-01 -8.7984693531311456e-03 5.2663032518227466e-02  1.5802100587102427e-01 -8.7292139748187045e-03 5.2481498965715662e-02  1.7853921785386401e-01 -8.6744048877863290e-03 5.2351925690579885e-02  1.9909492706121609e-01 -8.6589455075929671e-03 5.2284771137886807e-02  2.1968297890832938e-01 -8.7916294611772444e-03 5.2283814760116260e-02  1.0846844270330115e-04 2.1610057748818975e-04 5.4099615310642512e-03  1.2528225709616774e-02 -5.8047261193614518e-03 3.4338160464598276e-02  2.6955677455938021e-02 -1.0851187271299204e-02 4.4573622557928488e-02  4.2304004753706451e-02 -1.4291352104986433e-02 4.9450984973881507e-02  5.9781451351308273e-02 -1.6296301600192655e-02 5.1525088058213986e-02  7.8476325638950351e-02 -1.7274498931437995e-02 5.2356115730005044e-02  9.7931369906439164e-02 -1.7649848196420227e-02 5.2604496817407448e-02  1.1784674394315425e-01 -1.7714297808574350e-02 5.2603114589980293e-02  1.3803597885789382e-01 -1.7644760970633326e-02 5.2515309895215856e-02  1.5839256929627107e-01 -1.7541300393989028e-02 5.2421645540871246e-02  1.7884987365003333e-01 -1.7464711396171222e-02 5.2365454824508724e-02  1.9938421922562130e-01 -1.7469848013886208e-02 5.2374608097242682e-02  2.1995146683967254e-01 -1.7707112464725540e-02 5.2455314456586084e-02  1.2072174633754618e-05 1.1981982279638839e-04 5.4734839918370226e-03  1.2739432074965452e-02 -9.2525516045595096e-03 3.3477312256038678e-02  2.7862135880113298e-02 -1.6836392009097305e-02 4.3170261132059698e-02  4.3762501333782469e-02 -2.1772168175447887e-02 4.8013236927160315e-02  6.1356567400120424e-02 -2.4476909518958138e-02 5.0344689469468816e-02  7.9905472264722804e-02 -2.5783360816661660e-02 5.1492199176206177e-02  9.9096407478531476e-02 -2.6301410125884345e-02 5.2024174837214519e-02  1.1874664515763127e-01 -2.6422620588442986e-02 5.2242857608394477e-02  1.3871874802486531e-01 -2.6371629166863027e-02 5.2317590719129482e-02  1.5892210361935458e-01 -2.6276140138534524e-02 5.2345113339532200e-02  1.7928839781649633e-01 -2.6212605381390756e-02 5.2388571481973789e-02  1.9978646849707368e-01 -2.6255882818337795e-02 5.2497975493900569e-02  2.2032795504249358e-01 -2.6550870944701217e-02 5.2687513816635244e-02  -8.6566170212886738e-05 3.5728547124195273e-04 5.6915170612781224e-03  1.3176920409965119e-02 -1.3209205181939897e-02 3.2159532637894610e-02  2.9728885882603126e-02 -2.3566953535637272e-02 4.1159821237558625e-02  4.6055724273794514e-02 -2.9396502709354705e-02 4.6230893524546006e-02  6.3571789107187707e-02 -3.2508190782354993e-02 4.8991732408366975e-02  8.1718965261468685e-02 -3.4027210470950177e-02 5.0566765193148913e-02  1.0048604613074473e-01 -3.4692397985170875e-02 5.1428574283173135e-02  1.1977271197101995e-01 -3.4919680959452096e-02 5.1886247208743304e-02  1.3947286031802658e-01 -3.4947408692691050e-02 5.2128736880697128e-02  1.5949456573308135e-01 -3.4914477838932534e-02 5.2276758157194070e-02  1.7975645898190351e-01 -3.4906316861868819e-02 5.2416385503725800e-02  2.0020606876401745e-01 -3.5009109676323757e-02 5.2616705596993593e-02  2.2072231496627176e-01 -3.5319281402651378e-02 5.2906479137394033e-02  -1.3371387789531959e-03 -3.7636439579623478e-04 5.2966326250004281e-03  1.5663812097659914e-02 -1.9399166230357697e-02 2.9932257068857923e-02  3.3093050177554456e-02 -3.0781781822384807e-02 3.9001701455060336e-02  4.9460497951282087e-02 -3.6895565429533289e-02 4.4593892280717688e-02  6.6165705359317567e-02 -4.0149898614219699e-02 4.7933696383314378e-02  8.3621180057004155e-02 -4.1892745028087625e-02 4.9892138578240694e-02  1.0182535729411114e-01 -4.2778563530051841e-02 5.1020652110812630e-02  1.2070174967136862e-01 -4.3195117577009522e-02 5.1655397006400532e-02  1.4012599088565364e-01 -4.3374690331758399e-02 5.2015405608311326e-02  1.5997701747518772e-01 -4.3461075420922958e-02 5.2244770563139531e-02  1.8014580640968400e-01 -4.3548883139601979e-02 5.2445438298065222e-02  2.0054735159541479e-01 -4.3726402932111455e-02 5.2693307292774057e-02  2.2104756604267128e-01 -4.4033453696346057e-02 5.3033979095453564e-02  7.4381322729980546e-04 -5.3607445032013718e-03 5.5861271396101739e-03  2.1370201363737490e-02 -2.7326895491110868e-02 2.9415748276016999e-02  3.8973379975149998e-02 -3.8415344780731907e-02 3.8040705397663771e-02  5.3050685544743958e-02 -4.4025762447367521e-02 4.4183935943119083e-02  6.8514325523489461e-02 -4.7484724992279077e-02 4.7658427576353898e-02  8.5120462041632594e-02 -4.9517124786864868e-02 4.9721633499744358e-02  1.0275365552024661e-01 -5.0694425820356388e-02 5.0920818729997146e-02  1.2128000577653866e-01 -5.1356340854253751e-02 5.1599481432000369e-02  1.4049918215244211e-01 -5.1729670019515228e-02 5.1988346458214700e-02  1.6024582798243375e-01 -5.1963325215996815e-02 5.2237636606204382e-02  1.8038226939872853e-01 -5.2161171857048480e-02 5.2452303168182245e-02  2.0078868607522485e-01 -5.2403675124739549e-02 5.2707443431523678e-02  2.2129721384824069e-01 -5.2720859206143791e-02 5.3049024072111754e-02  -2.7286192658122771e-04 5.1867875645609050e-03 1.0681342860646634e-03  1.5531788304895183e-02 2.9966200424545564e-02 1.9983474928441779e-02  3.3189376612620072e-02 3.9153954556293648e-02 3.1066205617774921e-02  4.9270279186173313e-02 4.4740697761565279e-02 3.7158291900974381e-02  6.6053206201266007e-02 4.8009107935097772e-02 4.0429064538724989e-02  8.3553763683823626e-02 4.9942840892247535e-02 4.2168822175825606e-02  1.0179790433406129e-01 5.1051643520489166e-02 4.3051822116841096e-02  1.2070601353970667e-01 5.1673332873665337e-02 4.3468099811045435e-02  1.4015384273799339e-01 5.2024880180778041e-02 4.3651379036024097e-02  1.6002094521052912e-01 5.2248316796760230e-02 4.3744340990918340e-02  1.8020048460809684e-01 5.2443849032961329e-02 4.3844105769492284e-02  2.0060973681589786e-01 5.2693255077141440e-02 4.4022157468399430e-02  2.2110832849422804e-01 5.3029869029598040e-02 4.4355907733360796e-02  -1.7151578401518478e-03 4.4584109314869475e-04 4.4584109314868694e-04  9.0896184888035244e-03 2.0361678791371084e-02 2.0361678791371070e-02  2.8067310354903008e-02 3.0962738433123110e-02 3.0962738433123135e-02  4.5651829724390233e-02 3.7133938643842845e-02 3.7133938643842915e-02  6.3812136302413197e-02 4.0334810672046528e-02 4.0334810672046542e-02  8.2113841055646425e-02 4.2095204801375213e-02 4.2095204801375179e-02  1.0089335473167034e-01 4.2995058305133838e-02 4.2995058305133844e-02  1.2013672712582706e-01 4.3429031375873457e-02 4.3429031375873423e-02  1.3978074659807604e-01 4.3627500523980366e-02 4.3627500523980310e-02  1.5974719866289647e-01 4.3733228912612561e-02 4.3733228912612644e-02  1.7996398093770866e-01 4.3843880702921625e-02 4.3843880702921605e-02  2.0036573110975464e-01 4.4033649814133664e-02 4.4033649814133623e-02  2.2085625007310594e-01 4.4353481531339611e-02 4.4353481531339549e-02  -1.2331756417416390e-03 4.5688208752445820e-04 5.7988547601350372e-04  7.1096364893591954e-03 1.3840912715338927e-02 2.1862569818918431e-02  2.4723874295146882e-02 2.3396714367174366e-02 3.2663483818076600e-02  4.2520976827321554e-02 2.9139825423832307e-02 3.8513288243485072e-02  6.1402928307116730e-02 3.2317381023009420e-02 4.1226078542529847e-02  8.0327743381114022e-02 3.3959549994926820e-02 4.2664327348834102e-02  9.9632164820077793e-02 3.4728148041615496e-02 4.3334205069955486e-02  1.1925579695421294e-01 3.5040724062016977e-02 4.3619692664614157e-02  1.3915684782025203e-01 3.5137184660365806e-02 4.3722114276235471e-02  1.5928303598420965e-01 3.5160935056288221e-02 4.3764233542597945e-02  1.7958869849690073e-01 3.5206285220427375e-02 4.3829750379496484e-02  2.0003569795948611e-01 3.5346318505854527e-02 4.3979965193203581e-02  2.2055325814013071e-01 3.5669564402102991e-02 4.4258224285890865e-02  -1.2017934484555726e-03 3.2299064131045255e-04 6.4202384871754376e-04  6.3246441479001617e-03 9.4387028725299773e-03 2.3085191008175826e-02  2.2701880306743066e-02 1.6707801881405315e-02 3.4438027940454669e-02  4.0302395872196577e-02 2.1421671453542762e-02 4.0127287503187940e-02  5.9352292229572376e-02 2.4179963418847608e-02 4.2466582985129300e-02  7.8647942200720827e-02 2.5598385781347380e-02 4.3526966808594580e-02  9.8348528278701178e-02 2.6244063409618781e-02 4.3889153480954526e-02  1.1830416188754936e-01 2.6477917855300629e-02 4.3952366425336523e-02  1.3845395945675945e-01 2.6520425127638983e-02 4.3899115639127843e-02  1.5874796500171540e-01 2.6503016334041219e-02 4.3831098946719764e-02  1.7915503150167936e-01 2.6510226549570547e-02 4.3812285790015948e-02  1.9965278505199882e-01 2.6615550080603619e-02 4.3886793181646531e-02  2.2020788771675728e-01 2.6926242663250461e-02 4.4087936305164853e-02  -1.1573350615063482e-03 2.6019110058552651e-04 6.7614231992793236e-04  5.9133585034270948e-03 6.0167612518436733e-03 2.3910326071507129e-02  2.1585139780747560e-02 1.0808778369792072e-02 3.5783801554754739e-02  3.8859735911532488e-02 1.4085294063392947e-02 4.1487015433967468e-02  5.7856757826517731e-02 1.6080767291905336e-02 4.3595076192955183e-02  7.7332136093864440e-02 1.7129946016506813e-02 4.4350506342359687e-02  9.7282536311895276e-02 1.7606834572551529e-02 4.4442723516380331e-02  1.1748035739792397e-01 1.7770798816850040e-02 4.4295726573575903e-02  1.3782670365978125e-01 1.7789340908238291e-02 4.4087771914091557e-02  1.5826001051840424e-01 1.7763212396063020e-02 4.3905721727640720e-02  1.7875214634629183e-01 1.7757492015045170e-02 4.3796223494602292e-02  1.9929300390960053e-01 1.7834485911861184e-02 4.3788649987888027e-02  2.1988589728279515e-01 1.8088556749274502e-02 4.3909360253987575e-02  -1.1401523110294617e-03 2.3808928096578490e-04 7.0018903647612262e-04  5.7154004460952266e-03 3.0364388893698887e-03 2.4385205420591863e-02  2.1015654589150452e-02 5.3965048460798857e-03 3.6599339345332042e-02  3.8044761791559981e-02 7.0468553607379719e-03 4.2356235503452251e-02  5.6965135557751748e-02 8.0760678698906223e-03 4.4344731801078605e-02  7.6508443634326281e-02 8.6253776695071130e-03 4.4916694599430207e-02  9.6589524823546977e-02 8.8770616468932303e-03 4.4833604635364628e-02  1.1693012863228633e-01 8.9639044185096418e-03 4.4542939142069894e-02  1.3739870325040737e-01 8.9740514138926201e-03 4.4225755976398870e-02  1.5792105225872546e-01 8.9612690107805874e-03 4.3960970444172007e-02  1.7846761570907227e-01 8.9605749508731066e-03 4.3784169727693480e-02  1.9903689720112089e-01 9.0093764853686493e-03 4.3715697987515255e-02  2.1965743169586421e-01 9.1594967693809266e-03 4.3777449974835493e-02  -1.1423849712372390e-03 2.3147887274996444e-04 7.2498769157490787e-04  5.6462770155511982e-03 2.3647101420978421e-04 2.4552476681390753e-02  2.0821978507039200e-02 2.1464252716222549e-04 3.6878714430998057e-02  3.7769949333298525e-02 1.6809445431422798e-04 4.2652622907353395e-02  5.6664584362771470e-02 1.3437613270478354e-04 4.4600877037959022e-02  7.6228286080225860e-02 1.1310801518926337e-04 4.5110908063201331e-02  9.6351637211132546e-02 1.0607554052706441e-04 4.4967907752228746e-02  1.1673925870521791e-01 1.0828139550284212e-04 4.4627730987497609e-02  1.3724805146865598e-01 1.1597591688719165e-04 4.4272587055114380e-02  1.5779959567522767e-01 1.2704476582123879e-04 4.3978661871368736e-02  1.7836344908710280e-01 1.3999134793975652e-04 4.3777716105427147e-02  1.9894286129768415e-01 1.5783233862991437e-04 4.3687752698655130e-02  2.1957341615269174e-01 1.7427104167964277e-04 4.3728017105396311e-02  -1.1600130863863669e-03 2.3939194858905272e-04 7.5544747391821253e-04  5.6817589324718804e-03 -2.5467696719132030e-03 2.4423544625066788e-02  2.0962402547992171e-02 -4.9612158752441928e-03 3.6625275741491763e-02  3.8006216556673418e-02 -6.7130024530904714e-03 4.2356405197007424e-02  5.6947948686150017e-02 -7.8104618321747322e-03 4.4330429607765953e-02  7.6507941560563314e-02 -8.4004092070282203e-03 4.4897563330928487e-02  9.6595042197588743e-02 -8.6638023032280902e-03 4.4816118360288211e-02  1.1693578397885329e-01 -8.7453151618638245e-03 4.4528960237092720e-02  1.3740091136441113e-01 -8.7399921135235623e-03 4.4215345877477441e-02  1.5791916537565812e-01 -8.7055838419401333e-03 4.3953265517980150e-02  1.7846139662720784e-01 -8.6798561103705145e-03 4.3778054710151344e-02  1.9903117106738455e-01 -8.6953394227926428e-03 4.3711981174927986e-02  2.1965149317657601e-01 -8.8144547721989101e-03 4.3773680229121613e-02  -1.2178513989050390e-03 2.9039460335410824e-04 7.8903421984115156e-04  5.8407764322665132e-03 -5.4904461282881244e-03 2.3984982262286025e-02  2.1475723221840028e-02 -1.0360575584246785e-02 3.5831367351430540e-02  3.8791201077299317e-02 -1.3760288659124063e-02 4.1480022958912566e-02  5.7831070186800435e-02 -1.5825298581208295e-02 4.3563374958168748e-02  7.7337981847979687e-02 -1.6906818342894696e-02 4.4312135178495485e-02  9.7295974171293473e-02 -1.7389456543561686e-02 4.4409959653125941e-02  1.1749100785549904e-01 -1.7545649619101281e-02 4.4270526049224344e-02  1.3782959262776517e-01 -1.7548951621532999e-02 4.4069462485894932e-02  1.5825462568730606e-01 -1.7503042825365009e-02