<?xml version="1.0"?>
<VTKFile type="UnstructuredGrid"  version="0.1"  >
<UnstructuredGrid>
<Piece  NumberOfPoints="2197" NumberOfCells="10368">
<Points>
<DataArray  type="Float64"  NumberOfComponents="3"  format="ascii">0.002292757916053004 0.006304404642761663 0.006304404642761836  0.1127504192611516 0.03381713575140871 0.03381713575140891  0.2141166006634427 0.0451975746163123 0.0451975746163123  0.312361059235839 0.0524789226318295 0.05247892263182868  0.4109354432269511 0.05695525245803899 0.05695525245803594  0.5104548916647201 0.05974050916555707 0.05974050916555219  0.6110097468602652 0.06144798453443828 0.0614479845344305  0.7125437475351459 0.06248224554983356 0.06248224554982375  0.8149273078103663 0.06312087610640747 0.06312087610639582  0.9180115525168155 0.06355835290450887 0.06355835290449584  1.02163399039717 0.06393772318402972 0.06393772318401579  1.125644801120111 0.06436589764342635 0.0643658976434114  1.229798479632276 0.06491117142580242 0.06491117142578638  3.311982720488791e-05 0.08425016991070398 0.005950934585364574  0.1038700725142349 0.1065402677795299 0.03599580826831104  0.2064982413634517 0.1199433556713293 0.04650336341705597  0.3067590351467626 0.1276666094527577 0.0533362517785744  0.407054139170354 0.1319907462276703 0.05747147590295368  0.5077999368088164 0.1344107490639758 0.06006187026952024  0.609205820686352 0.1357104389340336 0.06164248128214123  0.7113096012684689 0.1363607503387295 0.06259264283884407  0.814048688721051 0.1366673406799983 0.0631743224686252  0.9173258951582528 0.1368334707785251 0.06357225225970335  1.021030169930048 0.137006699425921 0.06392625155788016  1.125050680803424 0.1372947609802931 0.06434707920808523  1.229210443962892 0.1378149790307565 0.06488046451678714  0.0004562311016804259 0.1673207869432334 0.005772597522578491  0.1014207491759689 0.1826938210754319 0.03763194938903142  0.2020822972077354 0.1944730266436164 0.04876421634867177  0.3022742146903356 0.2018824231784337 0.05530160083099692  0.403259015138372 0.2061227427042898 0.05894176240969957  0.5048109805911252 0.2083770730127179 0.06109602596196125  0.6069297681621738 0.2094575775070095 0.06233530692991964  0.7095959086948569 0.2098829322169808 0.06302900880499297  0.8127420947931782 0.2099830848534443 0.06342116730955054  0.9162905441256703 0.2099703523757598 0.06367884116379856  1.020160026581632 0.2099920908338189 0.06392911309239738  1.124266490834054 0.2101631187340648 0.06426645681856011  1.228480774285491 0.2106728359173208 0.06472284135882539  0.000550420799194002 0.2504983991466165 0.005723662166158818  0.1007553793485337 0.2610918768181789 0.03867107675714226  0.1999183742369736 0.2699259726362047 0.05059282028112443  0.2993426535726906 0.2760356553749831 0.0572055922538561  0.4002651002857509 0.2797398143692057 0.06057480081541583  0.5021352811828003 0.2817345802689198 0.06235410241829102  0.6047016839695184 0.2826568682691519 0.0632350501867968  0.7078032576932349 0.2829699956537227 0.06362693108775155  0.8113098414328525 0.2829818055414129 0.06377863754553841  0.9151245862635076 0.282892609959209 0.06384755631397  1.019170086928458 0.2828385231641971 0.06394605320064858  1.123371966336684 0.2829436773362836 0.06414598300472681  1.227653953088484 0.2834146425257677 0.0644688350114304  0.0006181801271030405 0.3337371634133586 0.00570572758415167  0.1005259369649498 0.3404657590921974 0.03935061718535673  0.1988612272616747 0.3462792836482647 0.05185732694599976  0.2975934854976455 0.3505336584255684 0.0586517868347179  0.3982135053477135 0.3532438714309097 0.06191556362412269  0.5001168023797677 0.3547519393808841 0.0634511328593307  0.6029014494915298 0.3554587293935476 0.0640561108410779  0.7062805305881348 0.3556940275183959 0.06419265846060158  0.8100481367539427 0.3556912773640489 0.06412773373755322  0.9140703951608719 0.3556070820794099 0.06401794394803484  1.018257588152787 0.3555485118212225 0.06396497506124607  1.122540944755364 0.3556270465979894 0.06402374560589584  1.226887357377749 0.3560023861451052 0.06421088077710545  0.0006532791616510098 0.4170086023115679 0.005710146514711789  0.100443567960086 0.4203035794800835 0.03974735897468096  0.1983628201190487 0.4232020665552824 0.05259527054772468  0.2966630369641834 0.4253798371666435 0.05953275980153174  0.3970271742694919 0.4268105855179444 0.06276733459239817  0.4988754655339366 0.4276317766475142 0.06417304387427875  0.6017417870757538 0.4280318232477962 0.06461159117365854  0.7052646978661594 0.4281783375717713 0.06458367112902075  0.8091832674139038 0.4281951249002764 0.06437295692843109  0.9133320260601082 0.42816756516607 0.0641387949179533  1.017607530362453 0.4281539097033759 0.06397715889635734  1.12194554061442 0.428225744641359 0.06393431962873999  1.226336767734835 0.4284496943774449 0.06402415362861251  0.0006587710267631536 0.5002977290318182 0.005728673969359077  0.1004088613849679 0.5003381163761078 0.03988983906477363  0.1981893305649652 0.5003975432349778 0.0528478276409139  0.2963417614398271 0.5004269695972695 0.05983340393125794  0.3966121763798029 0.5004488901935804 0.06305923906530714  0.4984328623007244 0.5004746375504902 0.06442173808274658  0.6013196157917 0.5005080542144527 0.06480357143515753  0.7048865601268756 0.5005493375949873 0.06471879714913108  0.8088533536881216 0.5005966823602336 0.06445708757902617  0.9130431997296149 0.5006491225304184 0.06417903281624786  1.017346975558627 0.5007038423015112 0.0639783940878678  1.121705090172642 0.5007738828814872 0.06390017834719036  1.226109942612531 0.5008139472376335 0.06395539143126254  0.0006442262963823058 0.5835976223875698 0.005761152247200876  0.1003943216257383 0.5803998672512547 0.03978875520419045  0.1982763361777378 0.5776121164040169 0.05263099132494132  0.2965640173283213 0.5754836872388223 0.05955419147562146  0.3969321666412876 0.5740923857389677 0.06277399708341423  0.4987899415399109 0.5733206489597442 0.06416898054531417  0.6016626065723931 0.5729878352178451 0.06460213403403088  0.7051874333351009 0.5729242306880975 0.06457247386114337  0.8091040917647464 0.5730020162744054 0.064362025319269  0.9132495384621676 0.5731335627287648 0.06412917781688679  1.017520023351379 0.5732553777043262 0.06396824609754138  1.121860783588073 0.5733185334078161 0.06392938524273045  1.226244447573307 0.5731766890834431 0.06402064400685824  0.0005700864117442326 0.6669732535917205 0.00582166361866335  0.1004095261897819 0.6603068936881729 0.03943912115241888  0.1986777292414868 0.6545839559295297 0.05193158442995743  0.2973904351227872 0.6503609498905758 0.05869349885298196  0.3980272441206932 0.6476717848764987 0.06192433950199041  0.4999499565952971 0.6462108478114659 0.06344031638944281  0.6027460695470976 0.6455721903000331 0.06403636930657079  0.7061263905168697 0.6454205904301926 0.0641710933709303  0.8098887299854565 0.6455171550444547 0.06410759875550594  0.9139036549402262 0.6457024368894012 0.0640007068474438  1.018080630673492 0.6458655263140067 0.06394930674572105  1.122368231883828 0.645907505954873 0.06401498156504518  1.226701040982823 0.6456202567559455 0.06420482384658978  0.000441342577035269 0.7502219484369838 0.005892810252184895  0.1005988604568833 0.7397890908290259 0.03881488846922292  0.1996004168667946 0.7310714790372548 0.05072329576890724  0.2990439193381746 0.7248931080441873 0.05725243478482754  0.3999971402994227 0.7211967129124299 0.06057703583992433  0.5018988799226397 0.7192477162887001 0.06233136760993241  0.6044739465960093 0.7183959379319933 0.06320559126538931  0.7075709979203065 0.7181659956831887 0.06359809240527148  0.8110660308182026 0.7182452161500053 0.06375368531326892  0.9148681548589257 0.7184300070863812 0.06382739115500106  1.018899153952626 0.7185835084699966 0.06392902558460875  1.12310463580798 0.718577900228015 0.06413623259316248  1.22737060649332 0.7182046517375913 0.06446198645605619  0.000487905386094079 0.8338872943873807 0.006182551960034191  0.1009979182471876 0.8187412414271626 0.03795150387993251  0.2016042206656732 0.8065772502032501 0.04888449683222206  0.3018618530503924 0.7990653239829578 0.05533013545343705  0.4029507034386786 0.7948265754813607 0.05891406620196563  0.5045160872252229 0.7926302041610902 0.06106112568394872  0.6066303579878003 0.7916229739647553 0.06230023419837831  0.70927990730144 0.7912783644557663 0.06299890384767963  0.812406297106647 0.7912643053934127 0.06339733603672038  0.91593773758719 0.7913661266876585 0.06366125506199335  1.019792336754552 0.7914399056719483 0.06391700465463103  1.123896421835747 0.791348109226945 0.06425852309838793  1.228096226784755 0.7909461812527214 0.06471757039156589  -0.001531103445388866 0.9167064920110904 0.006149001739743251  0.1036817360523426 0.8948093098309928 0.03607594895648009  0.2059183308321773 0.8810768207291544 0.04661448269708959  0.3064975700020284 0.8733169783150179 0.05326676687619974  0.4067548465153971 0.8690254129276088 0.05744262951548174  0.5074667563355214 0.8666530294876094 0.06003340468840841  0.6088330999400792 0.8654161029664945 0.06162140664730161  0.7109009194491228 0.8648360057777175 0.06257869162760665  0.8136097600025614 0.8646058769109647 0.06316675495184865  0.9168636098929868 0.8645200253923251 0.06357070962992793  1.020550234035624 0.8644335872451253 0.06393037902152632  1.124559090043569 0.8642146908139915 0.06434779162507426  1.228717981306083 0.8638040849305684 0.06488310127782969  0.001752856208935363 0.9931035567211978 0.007010131565992539  0.112508818757115 0.9685080778247893 0.03617482047034656  0.2142092223675099 0.9555609822325871 0.04516300962642936  0.3120691453434995 0.9484150653535441 0.05259501358911806  0.4105544424593577 0.943995722279209 0.05697591934168439  0.5100004568519773 0.9412875910285593 0.05972890123121129  0.6104863705404575 0.9396542029054419 0.06143141942981657  0.7119797410869619 0.9386995018073597 0.06246511175252722  0.8143350923267022 0.9381433049303652 0.06310723359315755  0.9174004125428133 0.9377900642223234 0.06355053874975099  1.0210207875
[...]
<PointData  Vectors="f_33"> 
<DataArray  type="Float64"  Name="f_33"  NumberOfComponents="3" format="ascii">1.2055396438331414e-05 -3.9466538378978584e-03 -3.9466538378978861e-03  -1.7792732726206555e-02 -2.6786605135576760e-02 -2.6786605135575868e-02  -3.4359149267521753e-02 -3.6976055048000729e-02 -3.6976055047999348e-02  -5.0476566572917464e-02 -4.2176839148681734e-02 -4.2176839148680700e-02  -6.8191901918783951e-02 -4.4856911767254370e-02 -4.4856911767254301e-02  -8.7390856035778383e-02 -4.6160665015180728e-02 -4.6160665015182151e-02  -1.0773046465226538e-01 -4.6722727313715434e-02 -4.6722727313718702e-02  -1.2887690988193093e-01 -4.6902866426334421e-02 -4.6902866426339472e-02  -1.5054915293432217e-01 -4.6896590248171457e-02 -4.6896590248178244e-02  -1.7254409302784907e-01 -4.6801333138460556e-02 -4.6801333138469119e-02  -1.9469898899576207e-01 -4.6656190857976065e-02 -4.6656190857986120e-02  -2.1698647030613383e-01 -4.6464526162285212e-02 -4.6464526162297008e-02  -2.3939331893584345e-01 -4.6042997782356071e-02 -4.6042997782370497e-02  8.5347099176745641e-04 -5.1849849269833921e-04 -4.5885141255180145e-03  -1.2945541973201143e-02 -1.9149121733780812e-02 -2.8053128761703461e-02  -3.0658001439061972e-02 -3.0104108665944710e-02 -3.7493508244685642e-02  -4.8127720386466136e-02 -3.5321080283380483e-02 -4.2398650340090611e-02  -6.6882427212343082e-02 -3.7713730802890144e-02 -4.4963907130055498e-02  -8.6705448677596345e-02 -3.8726890464871933e-02 -4.6207842707715711e-02  -1.0740617962132726e-01 -3.9081490181613020e-02 -4.6741547655240488e-02  -1.2875600103258050e-01 -3.9139686187217977e-02 -4.6909714336852606e-02  -1.5054425798242899e-01 -3.9076089383044951e-02 -4.6899965786751076e-02  -1.7261147401910412e-01 -3.8963980759636592e-02 -4.6805749161488990e-02  -1.9484448169620788e-01 -3.8823710594681850e-02 -4.6667135606749101e-02  -2.1722224668752604e-01 -3.8614617289615315e-02 -4.6484352818673934e-02  -2.3968473381490835e-01 -3.8215058002881025e-02 -4.6123915597984046e-02  6.6047469493673086e-04 -9.8531304323727712e-05 -4.7142754058176499e-03  -1.0974453470570904e-02 -1.3643434545937529e-02 -2.9945597658149803e-02  -2.7883707343815765e-02 -2.3467147142023494e-02 -3.9019524110455991e-02  -4.5736501319220961e-02 -2.8324106345906416e-02 -4.3334268726579028e-02  -6.5193189564588097e-02 -3.0463778931113562e-02 -4.5461441643627719e-02  -8.5613285901254055e-02 -3.1246839524647445e-02 -4.6444347130560781e-02  -1.0675150813978612e-01 -3.1428965461270199e-02 -4.6841597339399667e-02  -1.2839723419572635e-01 -3.1378078104447815e-02 -4.6946627094547756e-02  -1.5037862300519958e-01 -3.1255269925905133e-02 -4.6913971604705104e-02  -1.7257578713080199e-01 -3.1116362353694652e-02 -4.6818681219626943e-02  -1.9490824781681043e-01 -3.0966280428679150e-02 -4.6693724821827529e-02  -2.1735547356187176e-01 -3.0754202107829618e-02 -4.6542498471998928e-02  -2.3985360510669107e-01 -3.0390515757648850e-02 -4.6249116872321173e-02  5.9496828448617753e-04 -3.2995930938716250e-05 -4.7899025159976625e-03  -1.0152903204786588e-02 -9.5185512184587408e-03 -3.1464148404906599e-02  -2.6070966252177252e-02 -1.7175562480604707e-02 -4.0638922780278239e-02  -4.3803035554885975e-02 -2.1226473764098214e-02 -4.4507313748344102e-02  -6.3587043106305002e-02 -2.3020929099576731e-02 -4.6155676052349770e-02  -8.4453621753317484e-02 -2.3614559860558510e-02 -4.6802418482960295e-02  -1.0599291103408731e-01 -2.3681796495820518e-02 -4.7005285571515440e-02  -1.2794313920944630e-01 -2.3563589317445451e-02 -4.7013044023537377e-02  -1.5013822909593255e-01 -2.3403871815695108e-02 -4.6941078043149752e-02  -1.7248144514121919e-01 -2.3247065905514085e-02 -4.6839050798844345e-02  -1.9491623332424760e-01 -2.3090501562681630e-02 -4.6728455327533419e-02  -2.1742548189774163e-01 -2.2889650903375143e-02 -4.6609069924729005e-02  -2.3996185665500666e-01 -2.2571010291054933e-02 -4.6396444569562705e-02  5.4180229483299241e-04 -8.3533831832895576e-05 -4.8292384939905781e-03  -9.7518470863743965e-03 -6.1091014605779825e-03 -3.2503413705893117e-02  -2.4967496868288124e-02 -1.1271155519944223e-02 -4.1929317757583726e-02  -4.2441238221781259e-02 -1.4134188680991628e-02 -4.5541081608781397e-02  -6.2328551405801992e-02 -1.5420560320441940e-02 -4.6816138513307001e-02  -8.3479264147813814e-02 -1.5815688067809176e-02 -4.7164892273854654e-02  -1.0532300595806288e-01 -1.5811925221267238e-02 -4.7180647639084916e-02  -1.2752584948211854e-01 -1.5671864552550725e-02 -4.7089147741642169e-02  -1.4990714592848511e-01 -1.5507041051215894e-02 -4.6974070256645163e-02  -1.7237954858270674e-01 -1.5350499990054875e-02 -4.6861838404981232e-02  -1.9490206536590166e-01 -1.5198681182049988e-02 -4.6761016016132424e-02  -2.1746583515023440e-01 -1.5019095591075369e-02 -4.6669222333393746e-02  -2.4004332311872581e-01 -1.4761345648759243e-02 -4.6535578180602194e-02  5.1517096658999643e-04 -1.8474077907069741e-04 -4.8639678824714339e-03  -9.5603543607548497e-03 -3.0934211675590823e-03 -3.3114326834912333e-02  -2.4377667121789889e-02 -5.6625843117363147e-03 -4.2741476120334687e-02  -4.1645984294168083e-02 -7.0948664516912573e-03 -4.6228796475304000e-02  -6.1548844595840722e-02 -7.7262580859763716e-03 -4.7277346920607019e-02  -8.2852086487652937e-02 -7.8884144997667487e-03 -4.7428847307979874e-02  -1.0488189234800803e-01 -7.8356479624936762e-03 -4.7313964111556764e-02  -1.2724898242398403e-01 -7.7083138913872666e-03 -4.7150412604114005e-02  -1.4975528966098459e-01 -7.5666263295599079e-03 -4.7002437074402555e-02  -1.7231545902643494e-01 -7.4286947863800423e-03 -4.6880748045534403e-02  -1.9489692189998276e-01 -7.2926563644360913e-03 -4.6784334845820896e-02  -2.1749906500067470e-01 -7.1420838788730651e-03 -4.6710629990163885e-02  -2.4010846359956742e-01 -6.9608431927873030e-03 -4.6631983002758393e-02  5.1606382476034995e-04 -3.1358588523061354e-04 -4.9043170325783290e-03  -9.4972252718863032e-03 -2.5208041207113320e-04 -3.3340084649578633e-02  -2.4188141531234063e-02 -2.0583682574459950e-04 -4.3032250940856838e-02  -4.1391487751330190e-02 -9.4499626981378224e-05 -4.6475479886703565e-02  -6.1301465086029516e-02 1.0201420483547364e-05 -4.7445682985152227e-02  -8.2658303215089476e-02 1.0679786970556440e-04 -4.7528512996220434e-02  -1.0475345815011419e-01 2.0081397655563566e-04 -4.7367743010258874e-02  -1.2717877043146558e-01 2.9748203662755186e-04 -4.7178326772456321e-02  -1.4972959386949145e-01 3.9995279732520659e-04 -4.7017710310550492e-02  -1.7232111784960039e-01 5.0822110547535165e-04 -4.6891151265061264e-02  -1.9492269999344475e-01 6.2184146663175302e-04 -4.6793952850126962e-02  -2.1753901962177105e-01 7.3872841400484431e-04 -4.6725045117838350e-02  -2.4016251764465918e-01 8.3513800219701224e-04 -4.6663116396125658e-02  5.4158676442029436e-04 -4.5715347968801405e-04 -4.9575930296663923e-03  -9.5401381454221518e-03 2.5818669756279794e-03 -3.3194940797015939e-02  -2.4366555029818156e-02 5.2564001510455932e-03 -4.2790840147577919e-02  -4.1669797485012566e-02 6.9138923753311043e-03 -4.6252447305246601e-02  -6.1602429134173249e-02 7.7515767349459327e-03 -4.7290938844007833e-02  -8.2925928051759273e-02 8.1039288626954566e-03 -4.7442131227920570e-02  -1.0496597339430361e-01 8.2376097951213419e-03 -4.7329358518855232e-02  -1.2733832116678662e-01 8.3033031336031196e-03 -4.7166550426141381e-02  -1.4984719260338777e-01 8.3665470234241864e-03 -4.7016975428319834e-02  -1.7240897201906960e-01 8.4451327497404201e-03 -4.6891543769084804e-02  -1.9498856440649631e-01 8.5362021613279229e-03 -4.6788646222795778e-02  -2.1759183100439705e-01 8.6192513765591793e-03 -4.6709844069912951e-02  -2.4020816001305520e-01 8.6337464415515916e-03 -4.6621633610936852e-02  6.0672043369468102e-04 -6.3476251433142877e-04 -5.0390320584556151e-03  -9.7107366735313446e-03 5.5861738251543223e-03 -3.2657826975573991e-02  -2.4949168590104542e-02 1.0882712036931393e-02 -4.2017337579938301e-02  -4.2499886915351871e-02 1.3976326524840238e-02 -4.5582163118531124e-02  -6.2443953360243803e-02 1.5459693931603949e-02 -4.6842132046218649e-02  -8.3630501608894223e-02 1.6035341483493001e-02 -4.7193540982368193e-02  -1.0549303246395779e-01 1.6214844420981957e-02 -4.7213511232746981e-02  -1.2770599741855834e-01 1.6267255368086517e-02 -4.7122904608272245e-02  -1.5009324930248899e-01 1.6307350466688027e-02 -4.7004044137366835e-02  -1.7257003763476189e-01 1.6366924669674762e-02 -4.6884317805131200e-02  -1.9508977737037070e-01 1.6441469942268461e-02 -4.6770951415453045e-02  -2.1765580184694822e-01 1.6495513215542441e-02 -4.6668493854808278e-02  -2.4024559374599594e-01 1.6442299755322253e-02 -4.6515957417392222e-02  7.4090767547031083e-04 -7.5011216187000204e-04 -5.1019371045449716e-03  -1.0108101341227195e-02 8.9774709619759897e-03 -3.1693922512952652e-02  -2.6054882495262340e-02 1.6813058474173574e-02 -4.0741283228169091e-02  -4.3924598625487199e-02 2.1112710915302389e-02 -4.4553351030958872e-02  -6.3775665363796183e-02 2.3074451864288619e-02 -4.6197184089623811e-02  -8.4688317839240704e-02 2.3839546836739462e-02 -4.6851126673187936e-02  -1.0625105379298638e-01 2.4086746021540682e-02 -4.7060057294638323e-02  -1.2821674322801332e-01 2.4161348653713544e-02 -4.7067069389409154e-02  -1.5042296030752705e-01 2.4206480833956521e-02 -4.6987914583412241e-02  -1.7277575204058368e-01 2.4265252878799874e-02 -4.6874390906033424e-02  -1.9520956936557868e-01 2.4333035027618070e-02 -4.6745502281108103e-02  -2.1772260149153697e-01 2.4366429610415855e-02 -4.6609382686298127e-02  -2.4027269237501170e-01 2.4264969272665665e-02 -4.6370153525126065e-02  7.6193965167909122e-04 -8.3873366467505440e-04 -5.3072192601697436e-03  -1.0908239572552632e-02 1.3001379907031251e-02 -3.0245780457496652e-02  -2.7924174421853746e-02 2.3240965475577122e-02 -3.9052297631004422e-02  -4.5930572971902138e-02 2.8240709833577335e-02 -4.3391539647921529e-02  -6.5481650592185053e-02 3.0533646634145636e-02 -4.5525973479048014e-02  -8.5936144966538827e-02 3.1477412605521032e-02 -4.6523245883839819e-02  -1.0710183098731672e-01 3.1838970791756432e-02 -4.6924501523458804e-02  -1.2876895096978092e-01 3.1982113081530011e-02 -4.7024374347901222e-02  -1.5076931446894123e-01 3.2063766454110645e-02 -4.6979576363719404e-02  -1.7298406030970609e-01 3.2139596051895758e-02 -4.6868523604830965e-02  -1.9532291994136866e-01 3.2206265298598651e-02 -4.6721669090991215e-02  -2.1777267339971859e-01 3.2230644239810577e-02 -4.6548797013374776e-02  -2.4028093225423203e-01 3.2098531042839065e-02 -4.6220277245989948e-02  1.3532092252669780e-03 -7.1731834556091953e-05 -4.9088505109141636e-03  -1.3203888188967816e-02 1.8678091136315425e-02 -2.8203977601740308e-02  -3.0813127417343055e-02 2.9937993910270789e-02 -3.7513795970694486e-02  -4.8524064961900842e-02 3.5267475230085277e-02 -4.2492143272978490e-02  -6.7277409059880222e-02 3.7783453353743245e-02 -4.5086575689244186e-02  -8.7126016488709102e-02 3.8965437403051563e-02 -4.6332558253336306e-02  -1.0785260021890075e-01 3.9503741861038145e-02 -4.6860222788592913e-02  -1.2923172615182832e-01 3.9757796711496513e-02 -4.7014171196745017e-02  -1.5104984696846366e-01 3.9898196685860352e-02 -4.6985105499489116e-02  -1.7314528919360880e-01 3.9998619795571143e-02 -4.6869416987816721e-02  -1.9540313438910675e-01 4.0066321669045626e-02 -4.6704556041754608e-02  -2.1778339366478466e-01 4.0094065938854874e-02 -4.6493939207145243e-02  -2.4025994920875318e-01 3.9934060701681352e-02 -4.6094085042627408e-02  2.7777576194377198e-04 3.9922389565898936e-03 -4.1945732546971497e-03  -1.7665100529556079e-02 2.6046468394341694e-02 -2.7732200018211688e-02  -3.5136535280878865e-02 3.7297887200834899e-02 -3.7044998624497692e-02  -5.0884172721185811e-02 4.2197682358462392e-02 -4.2377927520038348e-02  -6.8631330796865994e-02 4.5001312153303774e-02 -4.5033560271278576e-02  -8.7867192447715917e-02 4.6448611421289893e-02 -4.6322446468709887e-02  -1.0824617923232376e-01 4.7180737354940001e-02 -4.6871684089308280e-02  -1.2944664800200317e-01 4.7547476620842806e-02 -4.7031946129169125e-02  -1.5116998543353241e-01 4.7738590434103945e-02 -4.7002121895005008e-02  -1.7320717852755038e-01 4.7849117104012816e-02 -4.6881322258527702e-02  -1.9541660164654598e-01 4.7913538777391573e-02 -4.6710858510698117e-02  -2.1771480485935649e-01 4.7936853903885461e-02 -4.6483564167812380e-02  -2.4011398275807927e-01 4.7794345595858725e-02 -4.6056567308127232e-02  8.5347099176743613e-04 -4.5885141255180110e-03 -5.1849849269827795e-04  -1.2945541973201108e-02 -2.8053128761704051e-02 -1.9149121733779969e-02  -3.0658001439061725e-02 -3.7493508244686363e-02 -3.0104108665943517e-02  -4.8127720386465657e-02 -4.2398650340090965e-02 -3.5321080283379505e-02  -6.6882427212342097e-02 -4.4963907130054874e-02 -3.7713730802890234e-02  -8.6705448677594985e-02 -4.6207842707713789e-02 -3.8726890464873411e-02  -1.0740617962132605e-01 -4.6741547655236797e-02 -3.9081490181616045e-02  -1.2875600103257889e-01 -4.6909714336847451e-02 -3.9139686187222966e-02  -1.5054425798242763e-01 -4.6899965786744290e-02 -3.9076089383051724e-02  -1.7261147401910285e-01 -4.6805749161480482e-02 -3.8963980759645050e-02  -1.9484448169620652e-01 -4.6667135606738977e-02 -3.8823710594691974e-02  -2.1722224668752457e-01 -4.6484352818661999e-02 -3.8614617289627187e-02  -2.3968473381490674e-01 -4.6123915597969613e-02 -3.8215058002895069e-02  1.4178324438898916e-03 -8.2765529254601774e-04 -8.2765529254598467e-04  -8.2798234457084723e-03 -1.9727235104334068e-02 -1.9727235104333454e-02  -2.6887052992752195e-02 -2.9934105021503364e-02 -2.9934105021502549e-02  -4.5766031933842113e-02 -3.5184416685796027e-02 -3.5184416685795812e-02  -6.5630344172364491e-02 -3.7596853136179165e-02 -3.7596853136179768e-02  -8.6046128731728511e-02 -3.8661397272845954e-02 -3.8661397272847897e-02  -1.0709541876961171e-01 -3.9047835632467914e-02 -3.9047835632471342e-02  -1.2863849592899546e-01 -3.9124511552001619e-02 -3.9124511552006649e-02  -1.5053533232720109e-01 -3.9069537985581604e-02 -3.9069537985588411e-02  -1.7267149092600553e-01 -3.8960185752034998e-02 -3.8960185752043422e-02  -1.9497399172181368e-01 -3.8817424044383902e-02 -3.8817424044393936e-02  -2.1742078464642209e-01 -3.8604732220055754e-02 -3.8604732220067620e-02  -2.3994890799039764e-01 -3.8240922898511678e-02 -3.8240922898525834e-02  1.0884664433549738e-03 -6.5237413233367402e-04 -9.6652226285449288e-04  -6.6943726908382352e-03 -1.3905580404591803e-02 -2.1170654870231446e-02  -2.4252933606823283e-02 -2.3082341002131045e-02 -3.1114311234614209e-02  -4.3447678207691569e-02 -2.7885818020869039e-02 -3.5960982255461758e-02  -6.3985953677083651e-02 -3.0163145750624405e-02 -3.7964610483004507e-02  -8.4951195532565582e-02 -3.1074924432130193e-02 -3.8827378937477973e-02  -1.0642323019690553e-01 -3.1342357420683302e-02 -3.9109786553335461e-02  -1.2825293904049576e-01 -3.1339338010427521e-02 -3.9143728483020251e-02  -1.5033990878214845e-01 -3.1238023575944750e-02 -3.9075056946496760e-02  -1.7260536432667195e-01 -3.1104633604607544e-02 -3.8965697274880480e-02  -1.9500181917309553e-01 -3.0947309105956347e-02 -3.8831355787788631e-02  -2.1751283209448044e-01 -3.0722483734100685e-02 -3.8645032054201507e-02  -2.4006974651585286e-01 -3.0374597675680178e-02 -3.8345508001028331e-02  1.0631844519106877e-03 -4.3560658659230810e-04 -1.0501379688646851e-03  -5.9334562024776164e-03 -9.6373526903898651e-03 -2.2365581755361099e-02  -2.2504705533293902e-02 -1.6762103981638660e-02 -3.2539799175571760e-02  -4.1644859313303917e-02 -2.0702461234091217e-02 -3.7013523909816194e-02  -6.2458887900284095e-02 -2.2651581531852125e-02 -3.8580876798857695e-02  -8.3820347865930997e-02 -2.3390291946751848e-02 -3.9142801513337148e-02  -1.0566111702030094e-01 -2.3565206978421564e-02 -3.9250044504557893e-02  -1.2777561142380278e-01 -2.3509080649819630e-02 -3.9199460506876609e-02  -1.5006755675180924e-01 -2.3378411473646360e-02 -3.9096943619097033e-02  -1.7247484191078000e-01 -2.3229824728846809e-02 -3.8980964321090911e-02  -1.9496655557294837e-01 -2.3065761487418398e-02 -3.8856918000964115e-02  -2.1752991614301612e-01 -2.2849011697209185e-02 -3.8701460174106271e-02  -2.4011542043513803e-01 -2.2542268356016745e-02 -3.8471763416324377e-02  1.0263442275014660e-03 -3.2958047511362390e-04 -1.0938069871816577e-03  -5.5065817643343154e-03 -6.1680225252850841e-03 -2.3208886927847616e-02  -2.1438072990977001e-02 -1.0948600394338297e-02 -3.3715722826437547e-02  -4.0395859719520949e-02 -1.3703881002554071e-02 -3.7966318568669673e-02  -6.1285509550640403e-02 -1.5100153772644800e-02 -3.9195540615122933e-02  -8.2892461008344492e-02 -1.5612650203723906e-02 -3.9477086803031830e-02  -1.0500027229811149e-01 -1.5702501298289390e-02 -3.9410693151780231e-02  -1.2734400866580495e-01 -1.5618245915980003e-02 -3.9269050080470692e-02  -1.4981030673839066e-01 -1.5480790320537485e-02 -3.9126836609219423e-02  -1.7234045094240000e-01 -1.5332976901402581e-02 -3.9000283433096215e-02  -1.9491234079127731e-01 -1.5175982639780858e-02 -3.8883225496431292e-02  -2.1751967306681427e-01 -1.4984261685826950e-02 -3.8754052769313929e-02  -2.4013570330425665e-01 -1.4731742894707311e-02 -3.8588315546836227e-02  1.0122193497668634e-03 -2.7629621998614972e-04 -1.1244062914971338e-03  -5.2862159181387876e-03 -3.1238168687734895e-03 -2.3705334747291716e-02  -2.0860550416177528e-02 -5.4952379483136733e-03 -3.4461234089705847e-02  -3.9666794313588528e-02 -6.8540504091182553e-03 -3.8608187384566742e-02  -6.0568887302144193e-02 -7.5414625694488974e-03 -3.9629867691194198e-02  -8.2304965857491710e-02 -7.7669379540252345e-03 -3.9723535873352867e-02  -1.0457125455826521e-01 -7.7671663173137602e-03 -3.9535183106005359e-02  -1.2706120155346759e-01 -7.6724594784105191e-03 -3.9326291498217446e-02  -1.4964258655505197e-01 -7.5476817696163183e-03 -3.9153248336976351e-02  -1.7225494238763692e-01 -7.4160123722801681e-03 -3.9016930136422733e-02  -1.9488022902945948e-01 -7.2783670267722780e-03 -3.8902783618619458e-02  -2.1751784707092001e-01 -7.1238564973308332e-03 -3.8790123191907146e-02  -2.4015582830956936e-01 -6.9405504210974340e-03 -3.8668132150052409e-02  1.0162555352155132e-03 -2.4877386457364698e-04 -1.1544953996419512e-03  -5.2117491679063372e-03 -2.6056099735413636e-04 -2.3888379683964032e-02  -2.0669760853306303e-02 -2.1605235741684587e-04 -3.4730795286620160e-02  -3.9433002019555775e-02 -8.4755052997127775e-05 -3.8838229702628138e-02  -6.0343995864058329e-02 1.5996245666535689e-05 -3.9787531032772806e-02  -8.2126255718609889e-02 1.1488595563397322e-04 -3.9815625635603986e-02  -1.0444825352553283e-01 2.0900389217447035e-04 -3.9584702872480670e-02  -1.2699013422058569e-01 3.0534195271842909e-04 -3.9351743867741561e-02  -1.4961253960713478e-01 4.0652848253931717e-04 -3.9166998530446577e-02  -1.7225419996422317e-01 5.1300073169139953e-04 -3.9025878261675764e-02  -1.9489815453909654e-01 6.2420240588973157e-04 -3.8910982203036640e-02  -2.1754692778900320e-01 7.3491137774165944e-04 -3.8802096203227852e-02  -2.4019270751268446e-01 8.3998240034057977e-04 -3.8694077991256723e-02  1.0371206283732893e-03 -2.3523223035382945e-04 -1.1894287367838876e-03  -5.2659183222278656e-03 2.5937317182609270e-03 -2.3767734355005874e-02  -2.0840831278373960e-02 5.0675868307114421e-03 -3.4511439348495911e-02  -3.9688619218994872e-02 6.6935194944649588e-03 -3.8625599076895639e-02  -6.0620900762278253e-02 7.5795988686986060e-03 -3.9638589228211826e-02  -8.2378925957695942e-02 7.9997384976430875e-03 -3.9731571236457063e-02  -1.0465599227988276e-01 8.1862495528445892e-03 -3.9546522996566580e-02  -1.2715244456174832e-01 8.2836319903461676e-03 -3.9338935492128760e-02  -1.4973746545110320e-01 8.3610459064265875e-03 -3.9165004527575716e-02  -1.7235182254071718e-01 8.4422015855663644e-03 -3.9025552232412046e-02  -1.9497714375115413e-01 8.5268318623159933e-03 -3.8906571475344903e-02  -2.1761595795066555e-01 8.5943942571396377e-03 -3.8787863268610542e-02  -2.4025362490605598e-01 8.6225124352832666e-03 -3.8660617913150459e-02  1.0843362204964845e-03 -2.4160472958800093e-04 -1.2316504175774489e-03  -5.465597090251