<?xml version="1.0"?>
<VTKFile type="UnstructuredGrid"  version="0.1"  >
<UnstructuredGrid>
<Piece  NumberOfPoints="2197" NumberOfCells="10368">
<Points>
<DataArray  type="Float64"  NumberOfComponents="3"  format="ascii">0.001324111718833528 0.005254799945776889 0.005254799945776885  0.1048540501776 0.0283325219971739 0.0283325219971739  0.2048656127666515 0.03827540813950166 0.0382754081395016  0.3028900880637657 0.04420989343116401 0.04420989343116401  0.4017750995552175 0.04769908134571749 0.04769908134571746  0.5017664524122597 0.04975878859852129 0.04975878859852124  0.602786617446979 0.05094638580566778 0.05094638580566769  0.7046721462753687 0.05161724279547417 0.05161724279547431  0.8072408874582553 0.05199979097627163 0.05199979097627163  0.910332599874256 0.05224398038147053 0.05224398038147047  1.013800258418384 0.05245266624005949 0.0524526662400594  1.117542392260265 0.0527048259703593 0.05270482597035932  1.221371107281529 0.05304729136854854 0.05304729136854841  -0.0002728619265812225 0.08440146761939797 0.005186787564560923  0.09886512163822851 0.1033168082617751 0.02996620042454555  0.1998560432792868 0.1143995389511083 0.0391539545562936  0.2992702791861733 0.1204916252343078 0.04474069776156524  0.3993865395345993 0.1237623978720583 0.04800910793509786  0.5002204303504904 0.1255021555091589 0.04994284089224755  0.6017979043340611 0.1263851554501744 0.05105164352048911  0.70403934687304 0.1268014331443788 0.05167333287366526  0.8068205094046601 0.1269847123693575 0.05202488018077805  0.9100209452105292 0.1270776743242517 0.05224831679676023  1.01353381794143 0.1271774391028256 0.05244384903296132  1.117276403482564 0.1273554908017329 0.05269325507714147  1.221108328494228 0.1276892410666942 0.05302986902959793  8.096547862289162e-06 0.1673419320920966 0.005199876795833894  0.09683891268523799 0.1807631154855542 0.03192873529853286  0.196555570398939 0.1905739868214942 0.04120519583434067  0.2960904500873425 0.1963184474877768 0.04631435592621462  0.3968490900586936 0.1994073814362542 0.04907932633732751  0.498334474780868 0.2009333071148565 0.05063193432674107  0.6004506009176711 0.2016052569063082 0.05147491050377884  0.7030924786287603 0.2018403336300767 0.05191750007098948  0.8061466167520849 0.2018782648254329 0.05214932483446413  0.9095168207016152 0.2018571817730203 0.05229023331410321  1.013124562602804 0.2018662429688746 0.05242536561532065  1.116909220345594 0.2019730582840525 0.0526226734326353  1.220767179559054 0.2023091051035175 0.05290973050905727  9.926695726283236e-05 0.250510102737768 0.005233129015845172  0.09620368781498082 0.25982034236052 0.03332356964792117  0.1947105386422823 0.2672931736625393 0.04311758484335656  0.2938210318836528 0.2720532168587463 0.04804696886113805  0.394694752975919 0.2747127858416002 0.05040041170967017  0.496543497548948 0.2760053410976101 0.051547515905576  0.5990670995794871 0.2765269534295716 0.05206784972718893  0.702061845001307 0.2766586633097983 0.052274772399157  0.8053822289280836 0.2766222936211552 0.05234007897951701  0.908931494985727 0.2765437630528347 0.05236096452373796  1.012645418181644 0.2764998477853584 0.05240188922605881  1.116473256145086 0.2765609214295285 0.05250637110068648  1.220358983946452 0.2768752288143064 0.0526925981937251  0.0001636713321737147 0.3337318611453014 0.005262974023895777  0.0959548395346134 0.3396437802561705 0.03423703231838218  0.1937301166770218 0.3445961892246512 0.0445277503042748  0.2923707592023231 0.3479311602390529 0.04945488177062245  0.3931334182919798 0.3498676909678223 0.05155608750175299  0.4951332020021185 0.3508200274053481 0.05239269351029165  0.59791256423852 0.3511928236527829 0.05263689970960862  0.7011650888487708 0.3512680432667107 0.05262829551728909  0.8046966306110398 0.3512160209217446 0.05253406589694252  0.9083949357640853 0.3511342114376715 0.05243555889824522  1.012196908821246 0.351080555607267 0.05237812185235178  1.116059859451217 0.3511189125655759 0.05238248905840492  1.219970093103151 0.3513660899596504 0.05245997683201781  0.000196984597473426 0.4169870455699966 0.005293252967385636  0.09585565788736637 0.419853590007283 0.03476576894332158  0.1932478173523833 0.422300312703067 0.04537389671675276  0.2915700681134289 0.4239888345896523 0.05034249723155234  0.3922044909226828 0.4249918335326135 0.05231646018247959  0.4942486867212324 0.4254915971771727 0.05296725189982747  0.5971602669377171 0.4256871365365167 0.05303321062078929  0.7005643123626192 0.4257245994823024 0.05287901676315365  0.8042274032482956 0.425694594062044 0.05267348451250976  0.9080211947764336 0.4256497979744717 0.05248943135724342  1.01187879748474 0.4256206584765044 0.05235930582422763  1.115764960544286 0.425650049546413 0.05228936105095439  1.219691780326823 0.4257867356426889 0.05228668914169194  0.0002016739383383595 0.5002597343938125 0.005324480424952023  0.09581762788641079 0.5002281921280091 0.03495406767284475  0.1930858342880881 0.5002009994624075 0.04566264755165884  0.2913029314944318 0.5001563792928373 0.0506446177405171  0.3918926127487084 0.5001225629967887 0.05257601279473482  0.4939488449315991 0.5001042132807844 0.05316398052930832  0.5969026242073947 0.5000994519017904 0.0531690911693432  0.700356207732308 0.5001038602724646 0.0529647955129363  0.8040624798390668 0.5001132771487629 0.05272054396506997  0.9078876709674465 0.5001259229750342 0.0525063597438709  1.01176234035959 0.5001391688392556 0.05234976685669242  1.115657675620007 0.5001636767653086 0.05225354426805814  1.219588577950235 0.5001646162677831 0.05222217885507055  0.0001858054061354357 0.5835435316159728 0.005361012207039783  0.09581411328992363 0.5806195531220768 0.03481601803404182  0.1931941940586172 0.5781058291902117 0.04540017535426776  0.2915330110827029 0.5763214780005623 0.05034450676000983  0.3921895388738844 0.5752518682569198 0.05230382470984878  0.4942507254153109 0.5747171782442192 0.05294945665212901  0.5971687022019133 0.5745142582494082 0.05301644146595712  0.7005723469979572 0.5744862485294278 0.05286540771382952  0.8042313500688476 0.5745348639802023 0.05266303251822747  0.9080210058710243 0.5746041193585146 0.05248149896571566  1.011872551187197 0.574658928445547 0.05235192569057989  1.115761593727883 0.5746743878257404 0.05228477113788681  1.219682978908329 0.5745417038721561 0.05228381476011626  0.0001084684427033011 0.6668827672441549 0.005409961531064251  0.0958615590429501 0.6608619405473052 0.03433816046459828  0.1936223441226047 0.6558154793953674 0.04457362255792849  0.2923040047537064 0.6523753145616802 0.04945098497388151  0.3931147846846416 0.6503703650664739 0.05152508805821399  0.495142992305617 0.6493921677352287 0.05235611573000504  0.5979313699064391 0.6490168184702464 0.05260449681740745  0.7011800772764876 0.6489523688580923 0.05260311458998029  0.8047026455245605 0.6490219056960334 0.05251530989521586  0.9083925692962711 0.6491253662726776 0.05242164554087125  1.012183206983367 0.6492019552704954 0.05236545482450872  1.116050885892288 0.6491968186527804 0.05237460809724268  1.219951466839672 0.6489595542019411 0.05245531445658608  1.207217463375462e-05 0.7501198198227964 0.005473483991837023  0.09607276540829879 0.7407474483954405 0.03347731225603868  0.19452880254678 0.7331636079909027 0.0431702611320597  0.2937625013337825 0.7282278318245521 0.04801323692716031  0.3946899007334537 0.7255230904810419 0.05034468946946882  0.4965721389313895 0.7242166391833383 0.05149219917620618  0.5990964074785314 0.7236985898741156 0.05202417483721452  0.7020799784909646 0.723577379411557 0.05224285760839448  0.8053854146915319 0.723628370833137 0.05231759071912948  0.9089221036193545 0.7237238598614655 0.0523451133395322  1.01262173114983 0.7237873946186092 0.05238857148197379  1.11645313516374 0.7237441171816622 0.05249797549390057  1.220327955042494 0.7234491290552988 0.05268751381663524  -8.656617021288674e-05 0.8336906188045753 0.005691517061278122  0.09651025374329844 0.8201241281513935 0.03215953263789461  0.1963955525492698 0.8097663797976961 0.04115982123755862  0.2960557242737945 0.8039368306239787 0.04623089352454601  0.396905122440521 0.8008251425509784 0.04899173240836698  0.4983856319281353 0.7993061228623832 0.05056676519314891  0.6004860461307447 0.7986409353481625 0.05142857428317314  0.7031060453043533 0.7984136523738813 0.0518862472087433  0.8061395269846932 0.7983859246406423 0.05212873688069713  0.9094945657330813 0.7984188554944008 0.05227675815719407  1.013089792315237 0.7984270164714645 0.0524163855037258  1.116872735430684 0.7983242236570096 0.05261670559699359  1.220722314966272 0.798014051930682 0.05290647913739403  -0.001337138778953196 0.9162903022708704 0.005296632625000428  0.09899714543099325 0.897267500436309 0.02993225706885792  0.1997597168442211 0.8858848848442819 0.03900170145506034  0.2994604979512821 0.8797711012371333 0.04459389228071769  0.3994990386926509 0.8765167680524469 0.04793369638331438  0.5002878467236709 0.874773921638579 0.04989213857824069  0.6018253572941111 0.8738881031366148 0.05102065211081263  0.704035083004702 0.8734715490896571 0.05165539700640053  0.8067926575523203 0.8732919763349082 0.05201540560831133  0.9099770174751878 0.8732055912457437 0.05224477056313953  1.013479139743017 0.8731177835270647 0.05244543829806522  1.117214018262081 0.8729402637345551 0.05269330729277406  1.221047566042671 0.8726332129703206 0.05303397909545356  0.0007438132272998055 0.9946392554967987 0.005586127139610174  0.1047035346970708 0.9726731045088891 0.029415748276017  0.2056400466418166 0.9615846552192681 0.03804070539766377  0.303050685544744 0.9559742375526324 0.04418393594311908  0.4018476588568228 0.9525152750077209 0.0476584275763539  0.5017871287082993 0.9504828752131351 0.04972163349974436  0.6027536555202466 0.9493055741796436 0.05092081872999715  0.704613339109872 0.9486436591457462 0.05159948143200037  0.8071658488191087 0.9482703299804848 0.0519883464582147  0.9102458279824337 0.9480366747840032 0.05223763660620438  1.0137156027
[...]
<PointData  Vectors="f_33"> 
<DataArray  type="Float64"  Name="f_33"  NumberOfComponents="3" format="ascii">-1.7479706110817793e-03 -5.3154951971286684e-03 -5.3154951971286510e-03  -2.1955060330386366e-02 -2.8285501849754247e-02 -2.8285501849754247e-02  -3.8406756424779254e-02 -3.8309611311114683e-02 -3.8309611311114725e-02  -5.2917559098484279e-02 -4.4260043329051819e-02 -4.4260043329051806e-02  -6.8485493755076843e-02 -4.7737586818738943e-02 -4.7737586818738895e-02  -8.5109039073908960e-02 -4.9788422081815754e-02 -4.9788422081815734e-02  -1.0275212009387837e-01 -5.0960939377525688e-02 -5.0960939377525695e-02  -1.2123877265930671e-01 -5.1610833527400958e-02 -5.1610833527400916e-02  -1.4038024649984063e-01 -5.1959729785505289e-02 -5.1959729785505365e-02  -1.6000940208422240e-01 -5.2147191791715258e-02 -5.2147191791715293e-02  -1.7997254387297029e-01 -5.2263878338570866e-02 -5.2263878338570970e-02  -2.0019983914237016e-01 -5.2362059886628558e-02 -5.2362059886628599e-02  -2.2057501525332529e-01 -5.2395140432054288e-02 -5.2395140432054427e-02  -1.1076574065782796e-04 -8.8138723089145924e-04 -5.6837272635932683e-03  -1.5905229193397850e-02 -1.9965247160792336e-02 -3.0141037779410875e-02  -3.3259528069668490e-02 -3.1125372098910847e-02 -3.9227703768964117e-02  -4.9293477542135533e-02 -3.7234342814264611e-02 -4.4783976275345951e-02  -6.6106369184974242e-02 -4.0478663761628932e-02 -4.8049385302441780e-02  -8.3570805407132923e-02 -4.2214527677173562e-02 -4.9972430817096236e-02  -1.0178107731801285e-01 -4.3089859724746521e-02 -5.1067285494341939e-02  -1.2063740870647735e-01 -4.3495604845615550e-02 -5.1669608470934970e-02  -1.4001285620660070e-01 -4.3658446341903787e-02 -5.1989889923253617e-02  -1.5978321041748261e-01 -4.3710637035768996e-02 -5.2160711063589660e-02  -1.7984285681644827e-01 -4.3730045849267984e-02 -5.2270409439433008e-02  -2.0013406154827285e-01 -4.3745209437026519e-02 -5.2372395165252453e-02  -2.2054630431134287e-01 -4.3764803620459092e-02 -5.2426698155283752e-02  -4.4279178691211321e-04 -5.3036579951276251e-04 -5.6881608259308205e-03  -1.3815446345711484e-02 -1.4134706024625023e-02 -3.2077587766520886e-02  -2.9956112827794937e-02 -2.3919219552074142e-02 -4.1301839246602391e-02  -4.6094984884506161e-02 -2.9711605874777999e-02 -4.6367147325971587e-02  -6.3581750682253788e-02 -3.2798944287235260e-02 -4.9118720722454698e-02  -8.1701214395474148e-02 -3.4323014008237139e-02 -5.0663145538383171e-02  -1.0046419260524943e-01 -3.4993216553539562e-02 -5.1495275370865422e-02  -1.1973610595159014e-01 -3.5224816361177039e-02 -5.1923690756420733e-02  -1.3940704530212100e-01 -3.5251491616100070e-02 -5.2131867777660733e-02  -1.5937783515787532e-01 -3.5200164501408331e-02 -5.2232514933053670e-02  -1.7956987701516106e-01 -3.5140019029916314e-02 -5.2300147890880853e-02  -1.9993401296440819e-01 -3.5094153853869645e-02 -5.2377058330859455e-02  -2.2037962223081145e-01 -3.5115347725030832e-02 -5.2423760965753068e-02  -5.2495325919909447e-04 -4.2100181584973809e-04 -5.6927277463301442e-03  -1.3162886496774806e-02 -9.8777043667924325e-03 -3.3456872283246605e-02  -2.8132102043318820e-02 -1.7308825860861448e-02 -4.3204292887407514e-02  -4.3831505814660096e-02 -2.2112288043961176e-02 -4.8099568693987037e-02  -6.1440340654144235e-02 -2.4773530266863179e-02 -5.0440786171852214e-02  -7.9931979344209786e-02 -2.6065224616206306e-02 -5.1581592543419645e-02  -9.9115536750163727e-02 -2.6588358570611446e-02 -5.2095850727384763e-02  -1.1875545701205664e-01 -2.6719832518223453e-02 -5.2295424177442665e-02  -1.3871406953413726e-01 -2.6677167938864484e-02 -5.2347677721500806e-02  -1.5889123287519141e-01 -2.6576607426615127e-02 -5.2344978484422884e-02  -1.7922104048156598e-01 -2.6477584821156645e-02 -5.2343642386741669e-02  -1.9965775040614819e-01 -2.6409053769255512e-02 -5.2368922128996173e-02  -2.2014220793431546e-01 -2.6432241953635902e-02 -5.2394372875193294e-02  -5.8728539708713216e-04 -3.4940559591859058e-04 -5.7141227001935233e-03  -1.2907911634461705e-02 -6.3501315903800003e-03 -3.4380196996456669e-02  -2.7157179859028064e-02 -1.1283163523944930e-02 -4.4610437427727682e-02  -4.2389659766503510e-02 -1.4652804969894840e-02 -4.9510339967752108e-02  -5.9889990670459109e-02 -1.6591612493730170e-02 -5.1599454971958676e-02  -7.8542149562248378e-02 -1.7545413131894151e-02 -5.2431333824891901e-02  -9.7991661162888113e-02 -1.7919671359674171e-02 -5.2673812036716873e-02  -1.1790264165322736e-01 -1.7994208616588896e-02 -5.2664261597729321e-02  -1.3809043096557733e-01 -1.7937130028230247e-02 -5.2567283809796479e-02  -1.5843940849711352e-01 -1.7838904910979402e-02 -5.2461560682199787e-02  -1.7888542493593426e-01 -1.7745306564190412e-02 -5.2387434659294928e-02  -1.9938650868414221e-01 -1.7684929276327352e-02 -5.2358287744774197e-02  -2.1991257328187422e-01 -1.7704855873977080e-02 -5.2365213812042927e-02  -6.2166489319531888e-04 -3.0806856477528778e-04 -5.7424133768353182e-03  -1.2804559157421892e-02 -3.2149680861743466e-03 -3.4914471122368361e-02  -2.6676756975375138e-02 -5.6608961309304881e-03 -4.5457180406138886e-02  -4.1594344535766346e-02 -7.3718745722471998e-03 -5.0401896278889968e-02  -5.8968585866693533e-02 -8.3774732508055151e-03 -5.2363903445948677e-02  -7.7671250435693603e-02 -8.8779717299129722e-03 -5.3011537319653905e-02  -9.7259322476324850e-02 -9.0721489330774993e-03 -5.3078350756547127e-02  -1.1733107689023370e-01 -9.1059098246015473e-03 -5.2927504650356984e-02  -1.3766268266210399e-01 -9.0692199289423535e-03 -5.2726339192587277e-02  -1.5812292275743881e-01 -9.0113433227648650e-03 -5.2546668803636024e-02  -1.7864491076991765e-01 -8.9565868206611925e-03 -5.2418879174393904e-02  -1.9919058067747294e-01 -8.9252317598395737e-03 -5.2350540088934625e-02  -2.1974818947576319e-01 -8.9374685164527838e-03 -5.2345226308861147e-02  -6.2799631043508847e-04 -2.8526089453408950e-04 -5.7778702789955914e-03  -1.2768906241951232e-02 -2.4258870592702860e-04 -3.5107764852159079e-02  -2.6517487980888654e-02 -2.3207300057122326e-04 -4.5751179720617770e-02  -4.1329342894859199e-02 -1.9947096757236174e-04 -5.0710032891358267e-02  -5.8658330718344087e-02 -1.6940857197853863e-04 -5.2629394283155870e-02  -7.7374534931861291e-02 -1.4951080815664924e-04 -5.3214024807579696e-02  -9.7006784214738476e-02 -1.3910250751413835e-04 -5.3220119364129105e-02  -1.1713170260358532e-01 -1.3514173140971713e-04 -5.3020055186234108e-02  -1.3751120902148684e-01 -1.3451450497066261e-04 -5.2782169490295641e-02  -1.5800877878837905e-01 -1.3602104126373861e-04 -5.2576104445050523e-02  -1.7855530251669957e-01 -1.3722816977991946e-04 -5.2428718812456206e-02  -1.9911707937057721e-01 -1.4459303464701395e-04 -5.2347285066034761e-02  -2.1968701734021859e-01 -1.4659547963773913e-04 -5.2337902354510538e-02  -6.1421533818400769e-04 -2.7363156498036103e-04 -5.8237387481883665e-03  -1.2777760198152995e-02 2.7098515650191266e-03 -3.4974981361232518e-02  -2.6630372176668908e-02 5.1908162863731708e-03 -4.5497393790251951e-02  -4.1558124847545355e-02 6.9711636057317406e-03 -5.0418964471706490e-02  -5.8949759375139577e-02 8.0373016068402206e-03 -5.2364972615767065e-02  -7.7667432271287223e-02 8.5772340258410615e-03 -5.3005175146368252e-02  -9.7261483599843240e-02 8.7907279008589325e-03 -5.3070535872268461e-02  -1.1733409813673630e-01 8.8324911895977052e-03 -5.2920548757831837e-02  -1.3766298042206487e-01 8.7973842053852194e-03 -5.2720672735466621e-02  -1.5811999353261116e-01 8.7373221654025810e-03 -5.2541843083922568e-02  -1.7863618278539620e-01 8.6807324245531236e-03 -5.2413961989447838e-02  -1.9918229357829711e-01 8.6365794481494985e-03 -5.2348855624957349e-02  -2.1974194332723462e-01 8.6449222106785347e-03 -5.2344042392545510e-02  -5.5786929629746433e-04 -3.2604737995341302e-04 -5.9092998164533839e-03  -1.2847489839701390e-02 5.8161203932461632e-03 -3.4497986818017627e-02  -2.7059166553654944e-02 1.0800691219752722e-02 -4.4686146940147033e-02  -4.2325453625442155e-02 1.4245287068262395e-02 -4.9538466325542270e-02  -5.9859995006675312e-02 1.6250397579346026e-02 -5.1596206533103060e-02  -7.8538842859101662e-02 1.7236420365476259e-02 -5.2418313506603753e-02  -9.7997359780415197e-02 1.7629003218602009e-02 -5.2659145115812517e-02  -1.1790787350976149e-01 1.7711080691642789e-02 -5.2652208087214783e-02  -1.3808986402310705e-01 1.7656882214273462e-02 -5.2557832012266201e-02  -1.5843250425208921e-01 1.7558148746201607e-02 -5.2453813932343711e-02  -1.7886767776976689e-01 1.7464175396459908e-02 -5.2379403549576105e-02  -1.9936924313436513e-01 1.7397387563976713e-02 -5.2355335921229804e-02  -2.1989876277312440e-01 1.7414418327993269e-02 -5.2362523265329745e-02  -4.3789851881123024e-04 -2.4885910453053959e-04 -5.9831146399804995e-03  -1.3068730463917894e-02 9.2552504331922577e-03 -3.3651927616313158e-02  -2.7983022787580972e-02 1.6750462209886838e-02 -4.3308490259381716e-02  -4.3765750488833861e-02 2.1716453557526154e-02 -4.8118061298352111e-02  -6.1411692479999169e-02 2.4413295999188178e-02 -5.0432740142217894e-02  -7.9936546033880868e-02 2.5743127729706522e-02 -5.1561424019636169e-02  -9.9124575520026861e-02 2.6280699470053345e-02 -5.2078888025711846e-02  -1.1876024353368229e-01 2.6422382014231260e-02 -5.2282290644842237e-02  -1.3870948676207140e-01 2.6384999491905661e-02 -5.2338251242511291e-02  -1.5887805195318810e-01 2.6287993516739522e-02 -5.2337400750615444e-02  -1.7919442423268753e-01 2.6191389993931079e-02 -5.2334833767899484e-02  -1.9963145299186372e-01 2.6125712110436558e-02 -5.2364463942449514e-02  -2.2011876191807864e-01 2.6144770764056826e-02 -5.2389886153245108e-02  -4.3371583519449694e-04 -5.5962306579793164e-04 -6.3104303646797956e-03  -1.3681420658792541e-02 1.3124280916767673e-02 -3.2377594123092671e-02  -2.9789575469577736e-02 2.3503272291497450e-02 -4.1302619250846800e-02  -4.6036782224887045e-02 2.9279435831565472e-02 -4.6379963956473674e-02  -6.3590418601584237e-02 3.2443260454797923e-02 -4.9092638918714106e-02  -8.1713135081599622e-02 3.3977824753448099e-02 -5.0647335298527552e-02  -1.0047517323720191e-01 3.4668807686793493e-02 -5.1482297998579590e-02  -1.1973517572812355e-01 3.4911947785575229e-02 -5.1916408043389935e-02  -1.3939408660154767e-01 3.4947445976412979e-02 -5.2127392402448569e-02  -1.5935586419574715e-01 3.4902785896720842e-02 -5.2229632255289746e-02  -1.7953552707790563e-01 3.4841030540431729e-02 -5.2296164425496151e-02  -1.9989529196109773e-01 3.4807916185974438e-02 -5.2373678685024544e-02  -2.2034135723292639e-01 3.4825008013581966e-02 -5.2416684665529484e-02  4.6307987004576474e-04 5.6363631969700830e-05 -5.8198301552736427e-03  -1.5992268326707505e-02 1.9236009079206470e-02 -3.0176231151851210e-02  -3.3151626083877957e-02 3.0553543386646453e-02 -3.9264772131776683e-02  -4.9400812727857554e-02 3.6767170739416238e-02 -4.4769242062204125e-02  -6.6144486495071486e-02 4.0055446092291232e-02 -4.8068236959561333e-02  -8.3597937295362079e-02 4.1839333069447739e-02 -4.9977954900906424e-02  -1.0178428501813970e-01 4.2741579358610358e-02 -5.1076661446166981e-02  -1.2062271811600955e-01 4.3168323952103134e-02 -5.1678927456196344e-02  -1.3998471920052050e-01 4.3344829223861008e-02 -5.1998247080238494e-02  -1.5974795679038284e-01 4.3409077352450552e-02 -5.2167591554560348e-02  -1.7980235228699323e-01 4.3427944454127398e-02 -5.2273662845979466e-02  -2.0008770504502041e-01 4.3464832552789927e-02 -5.2368622093379905e-02  -2.2050611296443137e-01 4.3476806194019391e-02 -5.2416908271588646e-02  -1.8915835140895661e-03 6.7231333780781496e-03 -6.2352702380007556e-03  -2.2113761527383459e-02 2.6809214158726877e-02 -3.0087731281159456e-02  -3.9034813817201412e-02 3.8224617296113053e-02 -3.8334664338198467e-02  -5.2899341019140567e-02 4.3821355440105618e-02 -4.4482309024552129e-02  -6.8546722732044540e-02 4.7426095527832300e-02 -4.7792391863631892e-02  -8.5090075437308552e-02 4.9458938350993402e-02 -4.9817954456332324e-02  -1.0270752005877667e-01 5.0648385259005252e-02 -5.0979510471906950e-02  -1.2117937590648677e-01 5.1303983673333588e-02 -5.1624149068616149e-02  -1.4031702236510271e-01 5.1659426841673170e-02 -5.1969664861275557e-02  -1.5994557257401867e-01 5.1852358465124031e-02 -5.2154219917852920e-02  -1.7992086976174931e-01 5.1967391536871493e-02 -5.2267692662429609e-02  -2.0014201555869221e-01 5.2072995278078224e-02 -5.2355806874355544e-02  -2.2050496240276393e-01 5.2101149580833249e-02 -5.2395058603049063e-02  -1.1076574065783355e-04 -5.6837272635932579e-03 -8.8138723089145317e-04  -1.5905229193397839e-02 -3.0141037779410861e-02 -1.9965247160792319e-02  -3.3259528069668469e-02 -3.9227703768964124e-02 -3.1125372098910836e-02  -4.9293477542135589e-02 -4.4783976275346013e-02 -3.7234342814264652e-02  -6.6106369184974298e-02 -4.8049385302441787e-02 -4.0478663761628855e-02  -8.3570805407132992e-02 -4.9972430817096215e-02 -4.2214527677173513e-02  -1.0178107731801293e-01 -5.1067285494341856e-02 -4.3089859724746646e-02  -1.2063740870647724e-01 -5.1669608470934991e-02 -4.3495604845615550e-02  -1.4001285620660059e-01 -5.1989889923253686e-02 -4.3658446341903759e-02  -1.5978321041748264e-01 -5.2160711063589611e-02 -4.3710637035769009e-02  -1.7984285681644843e-01 -5.2270409439432966e-02 -4.3730045849267894e-02  -2.0013406154827296e-01 -5.2372395165252515e-02 -4.3745209437026582e-02  -2.2054630431134256e-01 -5.2426698155283696e-02 -4.3764803620459057e-02  1.7472129995280451e-03 -6.4265956816422342e-04 -6.4265956816422223e-04  -9.2612265508132414e-03 -2.0476475157126136e-02 -2.0476475157126136e-02  -2.7978529546066055e-02 -3.1004231612039405e-02 -3.1004231612039360e-02  -4.5729839289876048e-02 -3.7223739927645938e-02 -3.7223739927645896e-02  -6.3875621659855150e-02 -4.0370629269841626e-02 -4.0370629269841612e-02  -8.2137213961694017e-02 -4.2141867310285512e-02 -4.2141867310285554e-02  -1.0089451584700017e-01 -4.3029604768350764e-02 -4.3029604768350646e-02  -1.2009666039091246e-01 -4.3453128530064451e-02 -4.3453128530064430e-02  -1.3968687879777519e-01 -4.3629228907512259e-02 -4.3629228907512273e-02  -1.5958512824785576e-01 -4.3691725806612756e-02 -4.3691725806612687e-02  -1.7972566057025291e-01 -4.3718130527853470e-02 -4.3718130527853540e-02  -2.0006318118825264e-01 -4.3742135940146858e-02 -4.3742135940146830e-02  -2.2051512466224935e-01 -4.3771572912140747e-02 -4.3771572912140753e-02  1.2276936098478410e-03 -5.6844777947857449e-04 -7.5817973881868591e-04  -7.2261512365596687e-03 -1.3936945079034780e-02 -2.2060620823434407e-02  -2.4633374549412661e-02 -2.3412266585649221e-02 -3.2737405527257804e-02  -4.2616231393724419e-02 -2.9205704191645337e-02 -3.8610381027948108e-02  -6.1471201580458018e-02 -3.2369393845363116e-02 -4.1250422444814090e-02  -8.0365743983899993e-02 -3.4012810821452202e-02 -4.2710985041679153e-02  -9.9660358836140606e-02 -3.4776115849603620e-02 -4.3367422163989304e-02  -1.1925481407499297e-01 -3.5082905202415832e-02 -4.3647257175438950e-02  -1.3912145798382344e-01 -3.5162821416535983e-02 -4.3731669377225800e-02  -1.5920480618271335e-01 -3.5148779995353527e-02 -4.3738139138663444e-02  -1.7946360558755106e-01 -3.5112669028315308e-02 -4.3731930622714063e-02  -1.9986803936460074e-01 -3.5086792716476030e-02 -4.3741701610806580e-02  -2.2034902072098816e-01 -3.5110950383512321e-02 -4.3774432769445121e-02  1.2188473908573303e-03 -4.1535638120729281e-04 -8.2401627835235202e-04  -6.4261118804776135e-03 -9.5470407910889822e-03 -2.3249144827500436e-02  -2.2655619351379021e-02 -1.6740872970920497e-02 -3.4498835528630555e-02  -4.0397607457131550e-02 -2.1487595528743422e-02 -4.0217694211197391e-02  -5.9430564435575053e-02 -2.4236895399351727e-02 -4.2487378979252761e-02  -7.8705172107899901e-02 -2.5653656161258153e-02 -4.3574573145850892e-02  -9.8406158945445896e-02 -2.6298316942832627e-02 -4.3925474701454276e-02  -1.1834484100438195e-01 -2.6527800699584152e-02 -4.3989479540434043e-02  -1.3847780480298535e-01 -2.6557105230340876e-02 -4.3926016278323585e-02  -1.5874960882400016e-01 -2.6507438845139876e-02 -4.3835510291765543e-02  -1.7913019430226260e-01 -2.6442820170320645e-02 -4.3766321730087335e-02  -1.9959804082708288e-01 -2.6399011905751339e-02 -4.3738281919756532e-02  -2.2011463994257743e-01 -2.6432343764773956e-02 -4.3758157105860500e-02  1.1854246884268444e-03 -3.1967817954649930e-04 -8.6163049609138081e-04  -6.0199474620152692e-03 -6.0933721117905123e-03 -2.4079202787325494e-02  -2.1543859593061172e-02 -1.0836610645640550e-02 -3.5854273055249172e-02  -3.8955312866113902e-02 -1.4142641932815688e-02 -4.1577176365072480e-02  -5.7946962566783326e-02 -1.6132619179087263e-02 -4.3618264863226820e-02  -7.7407165319594767e-02 -1.7183150339814632e-02 -4.4399568598020522e-02  -9.7365590020472320e-02 -1.7659817720475899e-02 -4.4484675889405967e-02  -1.1755722415912563e-01 -1.7819315714566891e-02 -4.4344089601319449e-02  -1.3790078768149425e-01 -1.7826929784492261e-02 -4.4134280813623930e-02  -1.5832802939296928e-01 -1.7775168890657726e-02 -4.3943445939580245e-02  -1.7880999324710686e-01 -1.7713891585628676e-02 -4.3805790195341254e-02  -1.9933178505773577e-01 -1.7675302504768720e-02 -4.3735014821971292e-02  -2.1988486269369278e-01 -1.7706100651415594e-02 -4.3742319329936462e-02  1.1727736480092255e-03 -2.6301887047511311e-04 -8.8766707808174427e-04  -5.8191702244938387e-03 -3.0864756636306027e-03 -2.4554655985052139e-02  -2.0973353183578212e-02 -5.4271278285232131e-03 -3.6668412938110045e-02  -3.8144346790919256e-02 -7.0964201411519790e-03 -4.2446706467317935e-02  -5.7063238655070347e-02 -8.1225173346316116e-03 -4.4370459680796490e-02  -7.6595238604585558e-02 -8.6731694571282273e-03 -4.4968574987003601e-02  -9.6689217038176317e-02 -8.9226317258434707e-03 -4.4881768337106560e-02  -1.1703113413296684e-01 -9.0040172582978827e-03 -4.4600945528862145e-02  -1.3750614279292345e-01 -9.0045596128096473e-03 -4.4288001326076742e-02  -1.5803327608276019e-01 -8.9736167626455650e-03 -4.4024256489165865e-02  -1.7858099249071854e-01 -8.9382713237206399e-03 -4.3835676517396109e-02  -1.9913897321801230e-01 -8.9186259837459349e-03 -4.3733113294345725e-02  -2.1971789136012498e-01 -8.9385654094154363e-03 -4.3731208537780612e-02  1.1760752083554182e-03 -2.2459572458454564e-04 -9.1500525196934121e-04  -5.7501841092280903e-03 -2.5862280995511266e-04 -2.4725248891732866e-02  -2.0780922479098785e-02 -2.4156784548443023e-04 -3.6953745865294700e-02  -3.7871251591362780e-02 -2.0614538481069581e-04 -4.2748787374022684e-02  -5.6765025454883329e-02 -1.7456030768322811e-04 -4.4631539121477007e-02  -7.6318393328350137e-02 -1.5339235958323105e-04 -4.5167183779754393e-02  -9.6456099534732775e-02 -1.4173851754465056e-04 -4.5020858071155877e-02  -1.1684793140555959e-01 -1.3659322870627097e-04 -4.4691038424303421e-02  -1.3736663022119619e-01 -1.3528928062532037e-04 -4.4341918644402033e-02  -1.5792701933080011e-01 -1.3605652172397857e-04 -4.4052184234990889e-02  -1.7849621624128517e-01 -1.3768395059424800e-04 -4.3845272653345486e-02  -1.9906671957302838e-01 -1.4311051827305127e-04 -4.3731528188815282e-02  -2.1965423082731400e-01 -1.4716874683024707e-04 -4.3726274287818966e-02  1.1908647510728055e-03 -1.9860989657723957e-04 -9.4868887258325895e-04  -5.7900364841594288e-03 2.5521449207236073e-03 -2.4602197134595508e-02  -2.0923589906650410e-02 4.9357656035377588e-03 -3.6709131332194507e-02  -3.8107206346472904e-02 6.6825595185892863e-03 -4.2460901056545153e-02  -5.7044847055246442e-02 7.7742502899588138e-03 -4.4368396069905947e-02  -7.6591667345070766e-02 8.3662485020538184e-03 -4.4959163304791015e-02  -9.6691104857188376e-02 8.6374148336598854e-03 -4.4871980045869855e-02  -1.1703416535107534e-01 8.7287855395009432e-03 -4.4592342122712209e-02  -1.3750671842195750e-01 8.7319086411368381e-03 -4.4281436299478123e-02  -1.5803046669698087e-01 8.6997781602718254e-03 -4.4019003579761143e-02  -1.7857422542374410e-01 8.6616941283655761e-03 -4.3831263291040631e-02  -1.9913151451537162e-01 8.6326238076789852e-03 -4.3729992134254658e-02  -2.1970827063579926e-01 8.6451497188200447e-03 -4.3727751183612523e-02  1.2336996207703689e-03 -2.1410850452648560e-04 -9.9538969