<?xml version="1.0"?>
<VTKFile type="UnstructuredGrid"  version="0.1"  >
<UnstructuredGrid>
<Piece  NumberOfPoints="2197" NumberOfCells="10368">
<Points>
<DataArray  type="Float64"  NumberOfComponents="3"  format="ascii">0.0004318884115231929 0.004467394782616018 0.00446739478261661  0.1126448807262456 0.03327003159980318 0.03327003159980924  0.2135424651391636 0.04459104092489549 0.04459104092490693  0.3121500399294601 0.05157223073905188 0.05157223073905424  0.4110703161207159 0.05592112624547615 0.05592112624546321  0.5108187864798406 0.05863479392125344 0.05863479392124168  0.6115293620991586 0.06030519900080534 0.06030519900080845  0.7131633264101696 0.06132116376449833 0.06132116376450578  0.8156075372500095 0.06195113546418852 0.06195113546418551  0.918724290377218 0.06238478632974285 0.0623847863297318  1.022364978936559 0.06276361339653568 0.06276361339651261  1.126384324834881 0.06318881631732212 0.06318881631728533  1.230545494855267 0.0637312562869731 0.06373125628693244  -0.0007290670125100812 0.08426272486068129 0.004225758780703276  0.1037156591371835 0.1058837088086587 0.0352872891549418  0.2059229951061364 0.1192245596423282 0.04576239195318105  0.30672461269363 0.1267374548196816 0.05232704338900508  0.4073007770447149 0.1309942684293593 0.05639630794749204  0.5082270244495988 0.1333925586162649 0.05893562034414856  0.6097602482425124 0.1346920699221189 0.06049149987709605  0.7119461640626734 0.1353527250098783 0.06142929671298512  0.8147356783391599 0.1356721664647018 0.06200495609863733  0.9180412447277047 0.1358500178703726 0.06240038352165442  1.021760880109238 0.1360312586326548 0.06275379279910225  1.12578652961509 0.1363234190264432 0.0631694530128805  1.229950141328376 0.1368459218899847 0.06369613736464946  -0.0003217426873946268 0.1675263516813691 0.00411773542153706  0.1017745478992625 0.1822902992966741 0.03667578579830242  0.2018424602656557 0.1938115395922668 0.04785631166336509  0.3024619120529053 0.2010947823593037 0.05418069939018353  0.4036687833028431 0.2052779961992318 0.05778136093803286  0.5053588338797854 0.2075174766851975 0.05990768763654901  0.6075687815123894 0.2086079426258282 0.0611442553624517  0.7102880221185608 0.2090543392663218 0.06184195838351465  0.8134647938270531 0.2091772900873947 0.06223926107004227  0.9170286519856081 0.2091843533403746 0.06250184915814844  1.020904039480344 0.2092208646972789 0.06275610197281897  1.125009890430587 0.2094035117305598 0.06308963543578021  1.229223834955516 0.2099146538576449 0.06353906371398918  -0.0002159910624645468 0.2506133810435072 0.004154649638759377  0.1012184727919431 0.2608641965591085 0.03759856552030774  0.1998756053613213 0.2694432759023269 0.04956492404353958  0.2996737895970328 0.275438995422901 0.05597921914985071  0.4007941249490805 0.2790957426704207 0.05932554307757892  0.5027854898738577 0.2810826928691654 0.06109797717991279  0.6054223495298985 0.2820174971195074 0.06199573770226281  0.7085565294734616 0.2823519919283592 0.06240795391389786  0.81207660818628 0.2823868546719593 0.06257762842463353  0.9158937352009899 0.2823181550566193 0.06266112707967628  1.019935918754847 0.2822810293580528 0.06277086043239989  1.124134805314979 0.28239753355027 0.06297359027095632  1.228414264019476 0.2828650532372498 0.06329625194792343  -0.0001517236313950651 0.3338055276399486 0.004186444260782779  0.1010181510747156 0.3403623538070136 0.03822708457594824  0.1989153754644262 0.3459983136228171 0.05074630718984324  0.2980175951922583 0.3501608071246295 0.05734274055719767  0.3988306384563245 0.3528343777282289 0.06059313226580086  0.5008444248634748 0.3543377983416676 0.06213801961727632  0.6036855949791406 0.3550554112596689 0.06277574490391018  0.7070834197119154 0.355307802855958 0.06294613673642231  0.810852292588131 0.3553230799467346 0.06290996193127023  0.9148673855736469 0.3552550116470595 0.06282321557695704  1.019045596768237 0.3552097478667581 0.0627887648383018  1.123324971088421 0.355294583096851 0.06285726144891909  1.227666960446055 0.3556634426258224 0.06305084341163657  -0.0001195966017677919 0.4170501278257161 0.004217478910008388  0.1009422978649609 0.4202974636196371 0.03860200161494892  0.1984575212895879 0.4231170658269626 0.05143553587494992  0.2971390351708988 0.4252462311243138 0.05817484774239977  0.3976964172630256 0.4266576586318171 0.06140138538660595  0.4996487127393904 0.4274773575552172 0.06282501948464408  0.6025629867167573 0.4278837790879921 0.06330569956045304  0.7060961247118235 0.4280391833372846 0.06332010123030322  0.8100087973564145 0.4280646393809688 0.06314502346589453  0.914145324182096 0.4280444963118327 0.06293938200900304  1.01840962021102 0.4280361619654658 0.06280106921627079  1.122743239861553 0.4281075004932519 0.06277213712209283  1.227128796249583 0.4283248934115462 0.0628720334072157  -0.0001125147516241561 0.5003256977037026 0.004246261567342264  0.1009068721049906 0.5004317293214356 0.03874122066844575  0.1982945460811827 0.5005047045766762 0.05167388687645379  0.2968344504468192 0.5005373046070499 0.05846228425495974  0.3972965276180428 0.5005627421310499 0.06168329304727579  0.4992160485705572 0.5005916612926202 0.06306653749921563  0.6021458742702168 0.5006255772165117 0.06349295773524793  0.7057197219255436 0.5006646635461095 0.06345248862822445  0.8096789891517231 0.500708348866358 0.06322788612588642  0.9138563105623245 0.5007568538029445 0.06297940928860966  1.018149896983251 0.5008071013106741 0.062802916440449  1.122504061846217 0.5008702843317981 0.06273875998345435  1.226903382350826 0.5009060817283484 0.06280361115196034  -0.0001276228481304193 0.5836267623208601 0.004274667979329883  0.1008902350105501 0.5805995269785543 0.03865317375386011  0.1983739535421805 0.5779132251610706 0.05147642605136942  0.2970433660681342 0.575840966681112 0.05820759296900001  0.397594810699327 0.5744762934676546 0.06142361649000282  0.4995446094827379 0.5737115371512033 0.06283662269278033  0.6024591241492753 0.5733707345157613 0.06330934702345725  0.7059936353108924 0.5732919078081609 0.06331875514914596  0.8099075024565778 0.5733527393546834 0.06314075120818592  0.9140452013513707 0.5734687909342865 0.06293354935190203  1.018309771232757 0.5735772402373089 0.06279322871443811  1.122648217982314 0.5736292924032291 0.06276455054485117  1.227027979600163 0.5734868285788634 0.06286109726916432  -0.0001807742743330765 0.6669723175159883 0.004307587979272231  0.1009015425806608 0.6606365759040974 0.03833572585573832  0.1987481634466298 0.6550929301002958 0.05083456161066811  0.2978249847400457 0.650964472409311 0.05741209367567657  0.3986244564247099 0.6483242473245635 0.06063751493513859  0.5006344962917059 0.646866132261787 0.06215987570075206  0.6034782857794971 0.6462073595609958 0.0627818818788327  0.7068801337314649 0.6460272556442205 0.06294290519112099  0.8106516954299066 0.6460956804234521 0.06290145888203345  0.9146686401148838 0.646256947827312 0.06281192195362655  1.018846661410451 0.6464014850517468 0.06277408343195046  1.123134570131199 0.646431646871638 0.06284303094866436  1.227466079874137 0.6461480492698544 0.06303089444076414  -0.0002964484483031638 0.7503249203459971 0.004338123293267392  0.1010591491935885 0.7402933643803862 0.03777084502089825  0.1996416899698665 0.7317544946088319 0.04972070528131189  0.2993808289557525 0.7257527377010209 0.05609030322454756  0.4004774762911671 0.7221003437095629 0.05938980561424078  0.5024690902126178 0.7201395629838745 0.06112633899290319  0.6051151012594264 0.7192531933455287 0.06200185834737308  0.7082569532360401 0.718986382998873 0.06240175832355981  0.8117800559193817 0.7190331786253318 0.0625652443264523  0.9155974630192648 0.7191923153405818 0.06264573391845434  1.019637537632211 0.7193277569567861 0.06275218197159776  1.123846216232308 0.7193138715692642 0.06295451516059002  1.228113229142099 0.7189491142018243 0.06327029943325804  -0.0004456359328267391 0.8337956407519072 0.004428246630132842  0.1015812846801452 0.8191887305781197 0.03696888382343481  0.2014794528936102 0.8075573383410691 0.04811737679475347  0.3020045037395285 0.8001744352386495 0.05434812250914742  0.4032192476940943 0.7959420041359037 0.05785806616804089  0.50494006206496 0.7937049243172447 0.05993365557898596  0.6071730694326996 0.7926588390081976 0.06114315097868014  0.7099015308814812 0.7922820984941659 0.06182872837508536  0.8130777943324956 0.7922426529677318 0.06222169348948927  0.9166372695013176 0.7923256105820983 0.06248293863304079  1.02050685937193 0.7923871715237482 0.06273559800215871  1.124615972713638 0.7922948818494429 0.06306604145210833  1.228817928650919 0.7919066478173586 0.06351061796380038  -0.002057785981195179 0.9167845293269233 0.004616099537487342  0.103461620576265 0.8958012798933228 0.03548222349945142  0.2054600429429982 0.8822536356359699 0.04612755257599759  0.3062081564558414 0.8745614235839748 0.05246341939972592  0.4068320891097068 0.8702182925295627 0.05643131558724059  0.507784351464417 0.8678248695422242 0.05892397170070555  0.6093157074689943 0.8665797428390172 0.06046952125071247  0.7114858653683459 0.8659942320512463 0.06140876846810687  0.814256190373114 0.865758973692914 0.06198879077452623  0.9175438632836075 0.8656693471267121 0.06238797535184561  1.021248319210431 0.865581880778149 0.06274266850914659  1.125264865492227 0.8653714773595351 0.06315016400184273  1.229426891926957 0.8649767093748461 0.06367383890531043  -0.0008626535454411259 0.9957802600054972 0.00505268874128949  0.1120557086966991 0.969265031385931 0.03623478797957053  0.2126821950656323 0.95680433596604 0.04492891383787243  0.3114901241968976 0.9495642276361168 0.05171758535573882  0.4105016389632444 0.9451924401621035 0.05590451947050865  0.5102537051947402 0.942529640590333 0.05857501541387835  0.6109413038645705 0.9409400951579306 0.06025040452545104  0.7125482900432918 0.9400129771783068 0.06127752374237836  0.8149702682113245 0.9394741201387337 0.06191818223064786  0.9180718769708957 0.9391323321745408 0.0623602801
[...]
<PointData  Vectors="f_29"> 
<DataArray  type="Float64"  Name="f_29"  NumberOfComponents="3" format="ascii">6.8646300885924808e-04 -2.6401895539263486e-03 -2.6401895539268660e-03  -1.9888210227789842e-02 -3.0413272092779602e-02 -3.0413272092771816e-02  -3.6906882482129491e-02 -4.3064571199944744e-02 -4.3064571199927966e-02  -5.2316450314387662e-02 -5.0577984227770330e-02 -5.0577984227752712e-02  -6.8249006967089326e-02 -5.5113073131881643e-02 -5.5113073131871838e-02  -8.5160649782369854e-02 -5.7782191250443669e-02 -5.7782191250440644e-02  -1.0307543557470825e-01 -5.9290836463751599e-02 -5.9290836463749969e-02  -1.2184274648976288e-01 -6.0091565119744235e-02 -6.0091565119748988e-02  -1.4126910961845293e-01 -6.0475345106539187e-02 -6.0475345106558005e-02  -1.6117562271462446e-01 -6.0625687311353767e-02 -6.0625687311388642e-02  -1.8140811046383049e-01 -6.0657955668192341e-02 -6.0657955668242079e-02  -2.0189425638175709e-01 -6.0632805467170106e-02 -6.0632805467234582e-02  -2.2256233135723461e-01 -6.0416768057295261e-02 -6.0416768057373831e-02  1.0331511610574900e-03 -4.5989931486060991e-04 -3.1136218900273977e-03  -1.4065668618798622e-02 -2.0914459694474936e-02 -3.1969678786710670e-02  -3.1885134386465931e-02 -3.4824913971696077e-02 -4.3856676461338034e-02  -4.8792674160918571e-02 -4.2487200606380643e-02 -5.1097239362287349e-02  -6.5929237416515352e-02 -4.6729461779684192e-02 -5.5448951065523285e-02  -8.3698618721850568e-02 -4.8980865494008284e-02 -5.7992159903796373e-02  -1.0219229224152787e-01 -5.0098235723316571e-02 -5.9418259434262634e-02  -1.2133646417334482e-01 -5.0587307345243124e-02 -6.0166996630933597e-02  -1.4100238891909705e-01 -5.0745910078676876e-02 -6.0519848647115536e-02  -1.6106103568625726e-01 -5.0743646396941559e-02 -6.0654451598909857e-02  -1.8140507148239854e-01 -5.0673327998966476e-02 -6.0683511164919372e-02  -2.0197724358453881e-01 -5.0547624714176197e-02 -6.0659627225199374e-02  -2.2268626160794200e-01 -5.0312739782702065e-02 -6.0483434742575427e-02  7.4510206843200820e-04 -2.8372766806103109e-04 -3.1614790689816386e-03  -1.2491161833285403e-02 -1.4550939984616139e-02 -3.3399989997981314e-02  -2.8815514006023880e-02 -2.6780546705803911e-02 -4.5565377963658740e-02  -4.5850746714923528e-02 -3.3986934553602792e-02 -5.2487661854932616e-02  -6.3607637649654852e-02 -3.7894226057220648e-02 -5.6468631517730315e-02  -8.2017806222715872e-02 -3.9823497577853979e-02 -5.8695925712192822e-02  -1.0104198987259254e-01 -4.0654053393636487e-02 -5.9883822511219452e-02  -1.2058662939094258e-01 -4.0912442334475357e-02 -6.0463951410876071e-02  -1.4053882710203086e-01 -4.0898699771682277e-02 -6.0704769624641233e-02  -1.6079620288124805e-01 -4.0772612557668036e-02 -6.0770318891075169e-02  -1.8127765734237247e-01 -4.0610987096851375e-02 -6.0762192509523055e-02  -2.0193357823385449e-01 -4.0420989965428401e-02 -6.0723373081924006e-02  -2.2268648512410319e-01 -4.0200311539032259e-02 -6.0573532193440541e-02  6.5983565637304966e-04 -1.3510033136740620e-04 -3.2351371050702558e-03  -1.1856279508201888e-02 -1.0069945041608481e-02 -3.4309805609808036e-02  -2.7097017127701586e-02 -1.9391937574218143e-02 -4.7079483718553458e-02  -4.3744457207920778e-02 -2.5352456236231460e-02 -5.3955181064925327e-02  -6.1667459356903952e-02 -2.8665943931262070e-02 -5.7667950685962997e-02  -8.0456248259944990e-02 -3.0256650681573790e-02 -5.9589718476724160e-02  -9.9884951306000752e-02 -3.0868175949366968e-02 -6.0510298092299790e-02  -1.1978010027430960e-01 -3.0979998633513296e-02 -6.0882344375116672e-02  -1.4000567063251956e-01 -3.0867460939710909e-02 -6.0973603499799148e-02  -1.6046204016335194e-01 -3.0674023752121998e-02 -6.0938362346520329e-02  -1.8108024029397596e-01 -3.0465411051199695e-02 -6.0866992254013146e-02  -2.0181796860898532e-01 -3.0253827308974343e-02 -6.0794936253190934e-02  -2.2261899708006824e-01 -3.0055640660746751e-02 -6.0669829335054569e-02  6.0989060236806122e-04 -1.4483645659755639e-04 -3.2738281314281643e-03  -1.1561808926122878e-02 -6.4821022115097628e-03 -3.4921729713869497e-02  -2.6172056624531773e-02 -1.2670967050961893e-02 -4.8171602267209110e-02  -4.2398447196549907e-02 -1.6839729784573165e-02 -5.5130779876018943e-02  -6.0270999250205778e-02 -1.9231695726053870e-02 -5.8702021505817187e-02  -7.9238033280855213e-02 -2.0371961020259823e-02 -6.0404624397328757e-02  -9.8929820620417205e-02 -2.0773068314110951e-02 -6.1105936522650943e-02  -1.1908525098354251e-01 -2.0794349262614364e-02 -6.1293150873934256e-02  -1.3952888247854861e-01 -2.0648368529299091e-02 -6.1243433204782725e-02  -1.6015007572323589e-01 -2.0446676550889466e-02 -6.1107924210266167e-02  -1.8088301143632804e-01 -2.0240073012489947e-02 -6.0969737313658519e-02  -2.0169216432516002e-01 -2.0043465685078123e-02 -6.0861666735264670e-02  -2.2254195154670289e-01 -1.9876264892483037e-02 -6.0760624307654644e-02  5.8800540252820169e-04 -2.3494275697204622e-04 -3.3056602775604479e-03  -1.1427346885960584e-02 -3.3268727113709923e-03 -3.5290329357267607e-02  -2.5715412284442872e-02 -6.4038571948997246e-03 -4.8825936722120308e-02  -4.1663382166403272e-02 -8.5057469692329506e-03 -5.5877230131011646e-02  -5.9446485163972725e-02 -9.7266895332380893e-03 -5.9389200857095745e-02  -7.8480554241361689e-02 -1.0292508200740369e-02 -6.0965175446178535e-02  -9.8315325834433351e-02 -1.0458358782651014e-02 -6.1527055537254981e-02  -1.1862832973891028e-01 -1.0415816149861486e-02 -6.1590057760244843e-02  -1.3921106125163887e-01 -1.0281201377725547e-02 -6.1441573451910911e-02  -1.5994033243804465e-01 -1.0116718326142096e-02 -6.1233260937740938e-02  -1.8074948926723755e-01 -9.9507228917789254e-03 -6.1044762523790083e-02  -2.0160832175636553e-01 -9.7954131642470424e-03 -6.0909531245174696e-02  -2.2249487532300238e-01 -9.6661017962324982e-03 -6.0824317330257963e-02  5.8664557168831735e-04 -3.6957097843887257e-04 -3.3345085495979300e-03  -1.1382608566704715e-02 -3.6157006995158171e-04 -3.5435551314790731e-02  -2.5575338222549527e-02 -3.5632846705653423e-04 -4.9064369367927838e-02  -4.1432614146577958e-02 -2.8515020734720648e-04 -5.6152042761340858e-02  -5.9180147209917836e-02 -2.0864577597925839e-04 -5.9646663444766761e-02  -7.8233568094357150e-02 -1.2394641539617064e-04 -6.1178527939067535e-02  -9.8117240502393691e-02 -3.1351418022502462e-05 -6.1690025140252770e-02  -1.1848617857492355e-01 6.6050452560403872e-05 -6.1707029674772595e-02  -1.3911891701591608e-01 1.6700115334555537e-04 -6.1520926851516188e-02  -1.5988721671633899e-01 2.6994183163446848e-04 -6.1283927767650022e-02  -1.8072360452366262e-01 3.7435089342153978e-04 -6.1074471014417014e-02  -2.0160147420754435e-01 4.7485492393126936e-04 -6.0927795061893296e-02  -2.2250331030891574e-01 5.6290682910875459e-04 -6.0844963858155084e-02  6.0632164179218076e-04 -5.2981443962880404e-04 -3.3640356541803445e-03  -1.1410413362547315e-02 2.5978721909503894e-03 -3.5362988004484057e-02  -2.5714180301424975e-02 5.6926006706108524e-03 -4.8895159753497348e-02  -4.1672343840543975e-02 7.9342754473246905e-03 -5.5946442986808766e-02  -5.9464168492788093e-02 9.3099352156184381e-03 -5.9450396751215440e-02  -7.8511855670530636e-02 1.0047330725206983e-02 -6.1015415948366812e-02  -9.8361153891705480e-02 1.0398670321748228e-02 -6.1567448591743505e-02  -1.1868604265041392e-01 1.0550024024189072e-02 -6.1622017309501426e-02  -1.3927688018545303e-01 1.0616169353729041e-02 -6.1465692213272055e-02  -1.6001119014602147e-01 1.0656905468320514e-02 -6.1249786980522324e-02  -1.8082222004926038e-01 1.0699394940895219e-02 -6.1053158101382496e-02  -2.0168502721269954e-01 1.0746183767124122e-02 -6.0912820135457617e-02  -2.2257687639684962e-01 1.0794787165048754e-02 -6.0817212055606716e-02  6.5453293616098726e-04 -7.0566908229624330e-04 -3.4021019574080433e-03  -1.1529918430908427e-02 5.7377727169556471e-03 -3.5061938921595565e-02  -2.6176534395869654e-02 1.1958582669818748e-02 -4.8309633838860701e-02  -4.2417315476763362e-02 1.6263832249896228e-02 -5.5267027888505176e-02  -6.0309833525123813e-02 1.8818760715819730e-02 -5.8820129666206207e-02  -7.9306682443612483e-02 2.0136412107038301e-02 -6.0502202133957649e-02  -9.9027852788528575e-02 2.0722751223322323e-02 -6.1185689366460252e-02  -1.1920621274122911e-01 2.0934826022744386e-02 -6.1357424126465769e-02  -1.3966531396752324e-01 2.0986172431343209e-02 -6.1292879670950082e-02  -1.6029617917397657e-01 2.0987752855409537e-02 -6.1142618141328542e-02  -1.8103264454127765e-01 2.0988577721224623e-02 -6.0988377386373575e-02  -2.0184901117329945e-01 2.0997247259632281e-02 -6.0869319316646103e-02  -2.2270807849746257e-01 2.1013330842031028e-02 -6.0747546388896637e-02  7.5883084908805708e-04 -8.5166328682614195e-04 -3.4328935036208250e-03  -1.1832872566055535e-02 9.3170425666353526e-03 -3.4506797431321873e-02  -2.7115925314189857e-02 1.8662667073102195e-02 -4.7289605431168037e-02  -4.3776533345718203e-02 2.4771424429818285e-02 -5.4149780425068440e-02  -6.1738166233363347e-02 2.8267318995813230e-02 -5.7833899013090072e-02  -8.0576154586706972e-02 3.0040830815787730e-02 -5.9729735655631611e-02  -1.0004749980374325e-01 3.0833927207836048e-02 -6.0628416686193419e-02  -1.1997420989108334e-01 3.1130763226348564e-02 -6.0980306581834808e-02  -1.4022118474757014e-01 3.1210303133069266e-02 -6.1051110091798186e-02  -1.6069133244469430e-01 3.1217092613263012e-02 -6.0994563350117437e-02  -1.8131488001004747e-01 3.1213389499908269e-02 -6.0899332130081328e-02  -2.0206206039169028e-01 3.1212300527855927e-02 -6.0809187014656325e-02  -2.2287362994485493e-01 3.1205475972728589e-02 -6.0653508136731482e-02  9.1317390394199394e-04 -8.7946364250658356e-04 -3.5437256136444900e-03  -1.2512093157313572e-02 1.3730069308256191e-02 -3.3636811631235566e-02  -2.8829599352279082e-02 2.5996589486938188e-02 -4.5832658690688893e-02  -4.5884582779271016e-02 3.3425074516929422e-02 -5.2725343146531517e-02  -6.3729348953276949e-02 3.7533396798844744e-02 -5.6672273762389758e-02  -8.2210618994300100e-02 3.9641050336621693e-02 -5.8874862961411152e-02  -1.0128633373561077e-01 4.0642653688262309e-02 -6.0041067717932745e-02  -1.2086698880526395e-01 4.1077856787354129e-02 -6.0598853035183600e-02  -1.4084484332987851e-01 4.1250087353251398e-02 -6.0814895345861542e-02  -1.6111997282752624e-01 4.1319669739877586e-02 -6.0853314961782569e-02  -1.8161070639659246e-01 4.1357757552175918e-02 -6.0813996089009580e-02  -2.0227497884013745e-01 4.1386490533941896e-02 -6.0749011069839647e-02  -2.2303602210843132e-01 4.1363271205702920e-02 -6.0559235185798081e-02  1.6607472158850878e-03 -4.7775756082402756e-04 -3.5322684023239418e-03  -1.4405415544703731e-02 1.9828142150183338e-02 -3.2135599708470824e-02  -3.1918291485073427e-02 3.4060818751854439e-02 -4.4146427397845585e-02  -4.8950175405200962e-02 4.1994662536299528e-02 -5.1322739496417712e-02  -6.6183511021832148e-02 4.6412052302670044e-02 -5.5672212828044618e-02  -8.4009332895867539e-02 4.8823275303309016e-02 -5.8206534179128952e-02  -1.0253964468851948e-01 5.0103218526977356e-02 -5.9618810808425515e-02  -1.2171422724105906e-01 5.0766358317801220e-02 -6.0345633414112504e-02  -1.4140749731909999e-01 5.1109314863747722e-02 -6.0669557102293693e-02  -1.6148985724319379e-01 5.1300220282554557e-02 -6.0770374634552329e-02  -1.8185455334795225e-01 5.1423981059723706e-02 -6.0759325966715245e-02  -2.0242888443428395e-01 5.1518382303300185e-02 -6.0697335304775633e-02  -2.2315243997280959e-01 5.1483967191727306e-02 -6.0483128032518423e-02  1.0478329997084491e-03 2.4663917587236786e-03 -2.5526972516513109e-03  -1.9150547183467530e-02 2.8831357145157777e-02 -3.2468110003183392e-02  -3.6968058636086217e-02 4.2475546928139776e-02 -4.3488210963286554e-02  -5.2564405004001127e-02 5.0234346996239972e-02 -5.0872894510615316e-02  -6.8583160665540627e-02 5.4898115677733381e-02 -5.5388201189701614e-02  -8.5533589572242510e-02 5.7698477718045746e-02 -5.8039353505794838e-02  -1.0348616693049385e-01 5.9351296574519381e-02 -5.9533278223787935e-02  -1.2229552603553173e-01 6.0314608970864159e-02 -6.0309166338892932e-02  -1.4176436964262684e-01 6.0873736778901760e-02 -6.0660270820918134e-02  -1.6171123978554519e-01 6.1208945517456419e-02 -6.0773094530646388e-02  -1.8198893509255676e-01 6.1428927727361089e-02 -6.0762343071921542e-02  -2.0247467133488561e-01 6.1598403070306743e-02 -6.0683524702547259e-02  -2.2314131751064165e-01 6.1631351095610250e-02 -6.0467088765437153e-02  1.0331511610573089e-03 -3.1136218900273244e-03 -4.5989931486080827e-04  -1.4065668618799952e-02 -3.1969678786715125e-02 -2.0914459694467123e-02  -3.1885134386466354e-02 -4.3856676461347374e-02 -3.4824913971680811e-02  -4.8792674160916066e-02 -5.1097239362297535e-02 -4.2487200606364024e-02  -6.5929237416510647e-02 -5.5448951065528149e-02 -4.6729461779673083e-02  -8.3698618721846862e-02 -5.7992159903794416e-02 -4.8980865494003857e-02  -1.0219229224152332e-01 -5.9418259434256236e-02 -5.0098235723316502e-02  -1.2133646417333764e-01 -6.0166996630919609e-02 -5.0587307345250028e-02  -1.4100238891908731e-01 -6.0519848647089897e-02 -5.0745910078695944e-02  -1.6106103568624675e-01 -6.0654451598869841e-02 -5.0743646396976094e-02  -1.8140507148238882e-01 -6.0683511164865679e-02 -5.0673327999015673e-02  -2.0197724358452895e-01 -6.0659627225132309e-02 -5.0547624714239917e-02  -2.2268626160793226e-01 -6.0483434742494575e-02 -5.0312739782780183e-02  1.2819359348715212e-03 -8.8037351296167037e-04 -8.8037351296152986e-04  -8.2284891569371840e-03 -2.1810688059491087e-02 -2.1810688059485977e-02  -2.7005265046004170e-02 -3.4798130379131771e-02 -3.4798130379121564e-02  -4.5371629971419643e-02 -4.2424362334539042e-02 -4.2424362334528121e-02  -6.3703525440519049e-02 -4.6642093644677932e-02 -4.6642093644671749e-02  -8.2310974346418236e-02 -4.8905860181892864e-02 -4.8905860181894453e-02  -1.0136621194461033e-01 -5.0042062373419530e-02 -5.0042062373425872e-02  -1.2087100745106429e-01 -5.0547809074729805e-02 -5.0547809074743481e-02  -1.4076259277466416e-01 -5.0718732049688173e-02 -5.0718732049713673e-02  -1.6096199346172940e-01 -5.0725066881957277e-02 -5.0725066881996739e-02  -1.8140324224956000e-01 -5.0658642475780398e-02 -5.0658642475833716e-02  -2.0204314946373575e-01 -5.0537775734491322e-02 -5.0537775734558518e-02  -2.2280029927044487e-01 -5.0325814179831722e-02 -5.0325814179912186e-02  9.9130425344884170e-04 -8.8775129902906008e-04 -9.4034511735688775e-04  -6.9955487680312001e-03 -1.5089803501929296e-02 -2.3089601607389251e-02  -2.4127198245491480e-02 -2.6567837354711271e-02 -3.5999452512768176e-02  -4.2524033802153860e-02 -3.3528889057452861e-02 -4.3516184890211668e-02  -6.1433471775551592e-02 -3.7470409032573142e-02 -4.7429132635226467e-02  -8.0664862242045429e-02 -3.9496974669365574e-02 -4.9448596567190396e-02  -1.0024098239550849e-01 -4.0424933224284205e-02 -5.0399698898185769e-02  -1.2013735792495965e-01 -4.0759508804785391e-02 -5.0774381738009550e-02  -1.4030681188644975e-01 -4.0799114444957860e-02 -5.0857284808954011e-02  -1.6069694079352265e-01 -4.0707335577340048e-02 -5.0807539724367287e-02  -1.8126601691990721e-01 -4.0563341420275484e-02 -5.0709198734350903e-02  -2.0198340179390054e-01 -4.0383355964550095e-02 -5.0580787198576317e-02  -2.2277855216329509e-01 -4.0174849592757730e-02 -5.0400310142817824e-02  9.5211379355399821e-04 -5.7738464647325862e-04 -1.0107886072111677e-03  -6.2962573334490006e-03 -1.0485330022191304e-02 -2.3912039998918874e-02  -2.2244751217621418e-02 -1.9190921060871849e-02 -3.7289152328875377e-02  -4.0439510390349022e-02 -2.4816482153596577e-02 -4.4783720589342976e-02  -5.9542214025743896e-02 -2.8132727493454069e-02 -4.8476121526964573e-02  -7.9147539679636794e-02 -2.9823474347613843e-02 -5.0238094348340069e-02  -9.9117459283444828e-02 -3.0553968945391981e-02 -5.0956656686627598e-02  -1.1935277854119763e-01 -3.0765455188900760e-02 -5.1147320682625078e-02  -1.3978456916287335e-01 -3.0726027274547745e-02 -5.1095658791845681e-02  -1.6036328924913168e-01 -3.0581487337662607e-02 -5.0953072366177368e-02  -1.8105764452400469e-01 -3.0400522089880675e-02 -5.0795686532785093e-02  -2.0184649188641618e-01 -3.0203702509893675e-02 -5.0643086953869466e-02  -2.2268535521117491e-01 -3.0019107764164339e-02 -5.0489895688749231e-02  9.1610847433021508e-04 -4.3414870039094140e-04 -1.0404775895190138e-03  -5.9415250472768608e-03 -6.7661896135825838e-03 -2.4460803778145822e-02  -2.1242400526495751e-02 -1.2524324821856097e-02 -3.8275235202999400e-02  -3.9107960238238045e-02 -1.6416856869409750e-02 -4.5836422295328340e-02  -5.8191804397284649e-02 -1.8783196901576257e-02 -4.9416415857463973e-02  -7.7975274495012153e-02 -1.9989094713787840e-02 -5.0985948273561524e-02  -9.8198054141905758e-02 -2.0485810246784277e-02 -5.1506920967719319e-02  -1.1868179035909626e-01 -2.0593439445765194e-02 -5.1528149994288661e-02  -1.3932047867702815e-01 -2.0513783121412180e-02 -5.1345106051798456e-02  -1.6005361975863297e-01 -2.0358097900592533e-02 -5.1107308387950960e-02  -1.8085139199645045e-01 -2.0179048866844681e-02 -5.0886281435941566e-02  -2.0170039692175565e-01 -1.9997384584860996e-02 -5.0704773229946640e-02  -2.2258186717549866e-01 -1.9840453551493761e-02 -5.0574934818847742e-02  9.0261458712150619e-04 -3.4851943935440094e-04 -1.0652589310091813e-03  -5.7610966648322156e-03 -3.4675323967180401e-03 -2.4791235657448181e-02  -2.0722129452090884e-02 -6.3300332429942737e-03 -3.8876913002150446e-02  -3.8359116618983669e-02 -8.2723973389080361e-03 -4.6517016101171378e-02  -5.7392125001023211e-02 -9.4721783936612108e-03 -5.0048623868341337e-02  -7.7250920537655157e-02 -1.0066548631856465e-02 -5.1505271490434185e-02  -9.7611645316726822e-02 -1.0283441455134164e-02 -5.1899615938123422e-02  -1.1824453656706382e-01 -1.0290200005738751e-02 -5.1806121545406245e-02  -1.3901399561523611e-01 -1.0195248783011668e-02 -5.1530313519017712e-02  -1.5984740102797484e-01 -1.0059363099755641e-02 -5.1222907195738361e-02  -1.8071313895494817e-01 -9.9116206547249473e-03 -5.0953759488303933e-02  -2.0160287263275500e-01 -9.7668388010382218e-03 -5.0749175007881044e-02  -2.2251480471912422e-01 -9.6411359002663236e-03 -5.0634433018845161e-02  9.0388890316224621e-04 -2.9951612156035412e-04 -1.0867580422216189e-03  -5.6989357493212600e-03 -3.5705575520210593e-04 -2.4916193549603134e-02  -2.0553690868495327e-02 -3.6160337529088035e-04 -3.9096152767246914e-02  -3.8116699712183143e-02 -2.6716576489524548e-04 -4.6768050393070491e-02  -5.7132019687328700e-02 -1.9297081079053800e-04 -5.0284639726198871e-02  -7.7016263069235966e-02 -1.0471732329882503e-04 -5.1701696007833212e-02  -9.7425275126020935e-02 -1.2318356282419951e-05 -5.2050426871374088e-02  -1.1811136613901475e-01 8.3159989635308876e-05 -5.1914686406301806e-02  -1.3892787906386081e-01 1.8107951455367975e-04 -5.1603799024740334e-02  -1.5979747884466866e-01 2.8064775940274660e-04 -5.1269185528503874e-02  -1.8068776045593751e-01 3.8133129538842460e-04 -5.0980293256421810e-02  -2.0159277466247189e-01 4.7828485764574180e-04 -5.0765117265713436e-02  -2.2251591627524542e-01 5.7081844138154097e-04 -5.0653881559270100e-02  9.2081108492420049e-04 -2.7166595537631520e-04 -1.1074301928824324e-03  -5.7383307759258442e-03 2.7462050602890245e-03 -2.4841908896136657e-02  -2.0700699440858450e-02 5.6075249240768506e-03 -3.8937896968089171e-02  -3.8351917638035707e-02 7.7401670990373877e-03 -4.6575132893483563e-02  -5.7405780896210346e-02 9.0908147618241793e-03 -5.0099147113357827e-02  -7.7284534244627834e-02 9.8625957016793084e-03 -5.1546173338601023e-02  -9.7661803663879804e-02 1.0263264262872367e-02 -5.1932480652611544e-02  -1.1830708162015281e-01 1.0459322666282500e-02 -5.1832160497566442e-02  -1.3908491548046964e-01 1.0558780440100432e-02 -5.1549929772432598e-02  -1.5992356256261095e-01 1.0621233322792410e-02 -5.1236092152575609e-02  -1.8079228368560296e-01 1.0674592952562779e-02 -5.0960228697631012e-02  -2.0168488645565130e-01 1.0724700950071119e-02 -5.0749186838777119e-02  -2.2259742220354559e-01 1.0785179916565085e-02 -5.0628412711923747e-02  9.5755411362643010e-04 -2.5445511085399862e-04 -1.1300569550199433e-03  -5.894630